LAMMPS (13 Jan 2014)
dimension       3
boundary        p p p
units           metal

atom_style	atomic
neighbor	0.3 bin
neigh_modify	every 10 delay 0 check no

# Number of steps for the equilibration steps
variable        eqsteps equal 50000

# Number of steps to run our NPH simulation
variable        simsteps equal 200000

# Our trial melting temperature
variable	T equal 900.0
variable	T2 equal 2*${T}
variable	T2 equal 2*900

# Some high temperature to melt the crystal
variable	Tmelt equal 2000.0

#System size
variable	nx equal 10
variable	ny equal 10
variable	nz equal 20
variable	nzhalf equal ${nz}*0.5
variable	nzhalf equal 20*0.5
variable	a equal 4.050
variable	length equal ${nz}*${a}
variable	length equal 20*${a}
variable	length equal 20*4.05

lattice		fcc ${a}
lattice		fcc 4.05
Lattice spacing in x,y,z = 4.05 4.05 4.05

region         box block 0 ${nx} 0 ${ny} 0 ${nz}
region         box block 0 10 0 ${ny} 0 ${nz}
region         box block 0 10 0 10 0 ${nz}
region         box block 0 10 0 10 0 20
create_box     1 box
Created orthogonal box = (0 0 0) to (40.5 40.5 81)
  1 by 1 by 1 MPI processor grid
create_atoms   1 box
Created 8000 atoms

mass		1 26.9815

pair_style	eam/alloy
pair_coeff	* * Al_potential.alloy Al

velocity	all create ${T2} 1337
velocity	all create 1800 1337

# Create a dump file. This can be visualized with
# e.g. OVITO (http://www.ovito.org/)
dump		id all atom 1000 atomsdump

# 1 fs timestep
timestep	0.001
thermo_style	custom step temp etotal pe press pxx pyy pzz lx ly lz

# output every 100th timestep
thermo		100

# Equilibration the whole system to the trial melting temperature
fix		1 all npt temp ${T} ${T} 1 iso 0 0 3 drag 1.0
fix		1 all npt temp 900 ${T} 1 iso 0 0 3 drag 1.0
fix		1 all npt temp 900 900 1 iso 0 0 3 drag 1.0
run		${eqsteps}
run		50000
Memory usage per processor = 5.95314 Mbytes
Step Temp TotEng PotEng Press Pxx Pyy Pzz Lx Ly Lz 
       0         1800   -25316.138   -27177.252    10898.511    10762.539    10748.474    11184.519         40.5         40.5           81 
     100    867.13912   -25334.716   -26231.296    28163.272    28455.765    28185.833    27848.217    40.588824    40.588824    81.177648 
     200     846.0589   -25362.122   -26236.907    16811.711    17406.495    16756.917    16271.723     40.79852     40.79852    81.597039 
     300     846.3559   -25373.867   -26248.959    7646.7834    7611.6066    7465.5515    7863.1922    40.969272    40.969272    81.938544 
     400    836.98695   -25375.363   -26240.767    2156.1481    1852.3478    2616.1409    1999.9555    41.083513    41.083513    82.167025 
     500    821.75522   -25372.785    -26222.44    -1261.554   -1177.3618   -1059.2752   -1548.0251    41.162015    41.162015    82.324029 
     600    822.96675   -25368.709   -26219.617   -3366.2535   -3093.6287   -3527.9106   -3477.2213    41.208029    41.208029    82.416058 
     700    815.09295   -25364.683    -26207.45   -3841.2846   -3787.9097   -3867.7819   -3868.1622    41.223167    41.223167    82.446335 
     800    829.84958     -25361.2   -26219.225   -3536.1214   -3333.5926   -3937.4219   -3337.3496    41.213316    41.213316    82.426631 
     900    826.04358   -25358.213   -26212.302   -2006.7594   -1870.3437   -2048.9447   -2100.9898    41.186419    41.186419    82.372837 
    1000    838.27305   -25355.229   -26221.963   -675.27249   -529.45046   -608.38237   -887.98464    41.153831    41.153831    82.307662 
    1100    845.45624   -25352.098   -26226.259     613.0183    843.03547    551.34417    444.67526    41.125376    41.125376    82.250752 
    1200    841.66065   -25348.951   -26219.187    1706.2237    2354.2615    1391.2039    1373.2057    41.107875    41.107875     82.21575 
    1300    844.58313   -25345.996   -26219.255    1926.2781    1892.9381    1857.7362    2028.1599    41.103369    41.103369    82.206738 
    1400    839.05331   -25343.244   -26210.785    1781.8234    1832.6584    1998.8927     1513.919    41.110601    41.110601    82.221201 
    1500    830.41365   -25340.527   -26199.134    1319.3627    1117.5019    1660.9432    1179.6428    41.126085    41.126085     82.25217 
    1600    849.96719   -25337.672   -26216.498    12.249169    22.641337    240.35239   -226.24622    41.145211    41.145211    82.290421 
    1700    841.46752   -25334.711   -26204.748   -489.74971    -277.7607   -819.60188   -371.88655    41.162384    41.162384    82.324767 
    1800    833.85261   -25331.668   -26193.831   -868.49492   -793.99963   -1068.8714   -742.61372    41.173672    41.173672    82.347344 
    1900    849.33548   -25328.649   -26206.821   -1242.2576   -1407.0061   -789.26411   -1530.5027    41.177674    41.177674    82.355348 
    2000    839.48167    -25325.73   -26193.714    -822.3725   -561.62621   -1025.3823   -880.10905     41.17453     41.17453     82.34906 
    2100    840.74349   -25322.822    -26192.11   -290.12404    -200.7531   -298.99813    -370.6209    41.166761    41.166761    82.333522 
    2200    848.24519   -25319.942   -26196.987    130.08665    22.505639    160.42442    207.32988      41.1574      41.1574    82.314799 
    2300    868.16085   -25317.102   -26214.739    67.934455    503.34301   -308.82174    9.2821012    41.149859    41.149859    82.299719 
    2400    847.24579    -25314.35   -26190.361    735.61284    856.55442    557.53151     792.7526    41.145651    41.145651    82.291302 
    2500    851.70587   -25311.682   -26192.304    794.87153    1009.9828    865.59879    509.03303    41.145984    41.145984    82.291967 
    2600    864.83288   -25309.099   -26203.294      266.455    653.49026    117.18627    28.688459    41.150496    41.150496    82.300992 
    2700    859.02354   -25306.574   -26194.763    231.23644    887.40165   -221.90499    28.212672    41.157473    41.157473    82.314946 
    2800    860.73618   -25304.034   -26193.994   -179.21719    21.911486   -357.26461   -202.29846    41.165518    41.165518    82.331036 
    2900    857.10018   -25301.522   -26187.723   -273.90694    -313.7815   -497.13393   -10.805382      41.1725      41.1725       82.345 
    3000    855.35265   -25298.934   -26183.327   -399.20192    -279.5623   -934.60152    16.558053    41.177483    41.177483    82.354966 
    3100    859.55648   -25296.379   -26185.119   -614.86981   -836.43076   -661.04007   -347.13859    41.179274    41.179274    82.358548 
    3200    857.04131   -25293.869   -26180.008   -319.24181   -139.73846   -301.39951   -516.58745     41.17751     41.17751     82.35502 
    3300    861.30898    -25291.43   -26181.982   -127.78458    77.815377   -21.525928   -439.64318    41.173524    41.173524    82.347048 
    3400    871.10888   -25289.039   -26189.723   -214.65193    116.97905   -389.63006   -371.30477    41.169141    41.169141    82.338283 
    3500    868.56162   -25286.686   -26184.737    176.51977    119.51282   -136.19545    546.24194    41.165407    41.165407    82.330814 
    3600    864.18825   -25284.373   -26177.902    402.76963     306.9802    495.40914    405.91954    41.163654    41.163654    82.327308 
    3700    870.12744   -25282.092   -26181.762    331.29472    198.24812    429.27903    366.35701    41.164688    41.164688    82.329376 
    3800    858.10205   -25279.877   -26167.113    502.67945    316.88551    478.32376    712.82907    41.168094    41.168094    82.336187 
    3900    860.33231   -25277.669   -26167.212    167.33651   -116.58123 -0.057605838    618.64835    41.173336    41.173336    82.346672 
    4000    868.58371   -25275.464   -26173.538   -186.12284    23.199324   -129.26261   -452.30525    41.178778    41.178778    82.357555 
    4100    868.11379    -25273.29   -26170.877   -295.74706   -488.30297   -639.30334    240.36514    41.183085    41.183085     82.36617 
    4200    869.78014   -25271.169    -26170.48   -465.08126    -112.6713   -680.47064   -602.10184    41.185264    41.185264    82.370528 
    4300    878.98158   -25269.094   -26177.918    -490.3117   -395.21837   -631.27961   -444.43712    41.185227    41.185227    82.370455 
    4400    874.88288   -25267.011   -26171.598   -223.02948   -490.00628   -243.89567    64.813524    41.183571    41.183571    82.367142 
    4500    872.83653   -25264.986   -26167.457   -22.053399    -275.7994    23.371392    186.26781    41.180882    41.180882    82.361765 
    4600     875.0199   -25263.084   -26167.812    126.81812     439.3519   -368.40609    309.50856    41.178051    41.178051    82.356101 
    4700    872.75985   -25261.131   -26163.523    303.92723    638.03991   -169.70084    443.44262     41.17719     41.17719    82.354381 
    4800    878.58214   -25259.182   -26167.594    256.04532    145.00283   -142.93244    766.06556    41.178089    41.178089    82.356179 
    4900     876.2815   -25257.323   -26163.356    163.30061     84.92428    49.970262     355.0073    41.180333    41.180333    82.360667 
    5000    877.71514   -25255.513   -26163.028   -27.389785    302.82971   -104.19013   -280.80894    41.183542    41.183542    82.367085 
    5100    870.68286   -25253.746    -26153.99    174.58211    228.22749   -390.86711    686.38597    41.186743    41.186743    82.373486 
    5200     875.0926   -25252.016    -26156.82   -147.24802    220.54656    -519.9779   -142.31274    41.189501    41.189501    82.379002 
    5300     884.0427   -25250.276   -26164.333    -284.3503   -565.57603   -557.32352    269.84866    41.191176    41.191176    82.382351 
    5400    876.00508    -25248.61   -26154.357    13.626707   -153.14951    46.140605    147.88902    41.191402    41.191402    82.382805 
    5500    873.56942   -25246.936   -26150.165    64.262832    103.58509   -670.91803    760.12144     41.19117     41.19117     82.38234 
    5600    876.40316   -25245.269   -26151.428    23.288729    66.090521   -374.14342    377.91908    41.190578    41.190578    82.381156 
    5700    873.92602    -25243.66   -26147.257    274.78464   -240.22312    632.26056    432.31649    41.189773    41.189773    82.379546 
    5800    879.01113   -25242.081   -26150.937    151.96153    127.96933    30.100731    297.81454    41.189558    41.189558    82.379115 
    5900    891.76526   -25240.523   -26162.565   -115.86367   -659.64863    5.3484081    306.70921    41.190172    41.190172    82.380344 
    6000    887.38571   -25238.965    -26156.48   -37.588057   -16.315018   -417.48396    321.03481    41.191606    41.191606    82.383213 
    6100    882.15098    -25237.48   -26149.582    36.022047   -388.13681    320.37049    175.83247    41.193259    41.193259    82.386518 
    6200    889.89838   -25235.995   -26156.107   -173.89668   -284.64042   -48.173245   -188.87637    41.195264    41.195264    82.390528 
    6300    890.19896   -25234.584   -26155.007     -209.721   -572.58013     103.4823   -160.06516    41.196617    41.196617    82.393234 
    6400    888.02118   -25233.222   -26151.393   -248.74518   -583.07135   -402.10346    238.93926    41.197014    41.197014    82.394029 
    6500    890.19015   -25231.899   -26152.312   -156.75094   -288.28143   -236.88155    54.910155    41.196254    41.196254    82.392508 
    6600    889.24702   -25230.649   -26150.088     15.76256    115.46329   -118.18968    50.014077    41.194582    41.194582    82.389164 
    6700    887.78113   -25229.348   -26147.271    133.41876    172.80208    -129.0718    356.52599    41.193764    41.193764    82.387528 
    6800    886.61918   -25228.057   -26144.779    85.143643    507.51118   -68.248569   -183.83168     41.19389     41.19389    82.387781 
    6900    883.72642    -25226.83   -26140.561    161.12953     335.7668    87.075976    60.545808    41.194291    41.194291    82.388583 
    7000     880.4171   -25225.632   -26135.941    409.22565    707.35407    292.10863    228.21424    41.195386    41.195386    82.390771 
    7100    884.13555   -25224.401   -26138.555    264.14363    648.90671   -389.93334    533.45752    41.197868    41.197868    82.395736 
    7200    893.93711   -25223.165   -26147.453   -188.70588   -163.39033   -236.48311    -166.2442     41.20107     41.20107     82.40214 
    7300     888.3511   -25222.001   -26140.513   -126.44638   -395.03558    178.53074    -162.8343    41.203543    41.203543    82.407087 
    7400    888.57705   -25220.898   -26139.644   -200.84234   -449.12222    -27.67243   -125.73238    41.204762    41.204762    82.409524 
    7500    886.50423   -25219.806   -26136.408   -76.518525   -244.59812   -17.339846    32.382389    41.204726    41.204726    82.409452 
    7600    898.82804   -25218.704   -26148.049   -155.59903    -290.2071    77.719049   -254.30904    41.203752    41.203752    82.407505 
    7700    895.11232   -25217.657    -26143.16    1.7196604   -289.28457   -291.74655    586.19011    41.202282    41.202282    82.404565 
    7800    886.78368   -25216.634   -26133.525    198.33457   -58.507682    790.78713   -137.27575    41.201224    41.201224    82.402448 
    7900    892.70172   -25215.617   -26138.628    110.66833   -158.36858    444.81299    45.560598    41.200953    41.200953    82.401905 
    8000    890.69285   -25214.596   -26135.529    101.18174    368.74971    126.43589   -191.64038    41.201539    41.201539    82.403079 
    8100    895.11407   -25213.627   -26139.132    73.020656    6.7923972   -134.62244    346.89202    41.202473    41.202473    82.404946 
    8200    898.72413   -25212.718   -26141.956   -96.959086   -193.35675    167.68473   -265.20524    41.203847    41.203847    82.407695 
    8300    882.69951    -25211.88   -26124.549    322.19125    405.72754    892.18067   -331.33446    41.204916    41.204916    82.409831 
    8400     893.3517    -25211.09   -26134.773   -99.600908    -184.7547     159.1349   -273.18293    41.205754    41.205754    82.411508 
    8500    892.53424   -25210.272    -26133.11    10.812241    10.673376     327.9594   -306.19605    41.206315    41.206315    82.412631 
    8600    890.20846   -25209.467     -26129.9    108.42324    410.11823    246.85974   -331.70824    41.206479    41.206479    82.412958 
    8700    892.41818   -25208.678   -26131.396    40.054545   -322.26954    302.91194    139.52123    41.206445    41.206445    82.412889 
    8800    901.12339   -25207.916   -26139.634   -136.12333    59.483649   -63.124587   -404.72906    41.206294    41.206294    82.412588 
    8900    895.73307   -25207.271   -26133.416    65.117651    395.68953   -156.98028   -43.356295    41.205591    41.205591    82.411181 
    9000    891.04751   -25206.649   -26127.949    222.89359    115.80725    227.76979    325.10373    41.205017    41.205017    82.410033 
    9100    884.79444   -25206.066   -26120.901    464.94909    538.20634    877.88077   -21.239823    41.204612    41.204612    82.409224 
    9200     893.4748   -25205.489   -26129.299    249.24662    325.70957    368.23869    53.791597      41.2053      41.2053    82.410601 
    9300    896.15047   -25204.916   -26131.492    28.466164    165.86933   -40.880616   -39.590218    41.206827    41.206827    82.413654 
    9400     896.4814   -25204.401   -26131.319   -65.652232     397.5921   -117.08919    -477.4596    41.208077    41.208077    82.416154 
    9500    898.09479   -25203.918   -26132.505   -113.66129   -68.759871   -337.86024    65.636242     41.20896     41.20896    82.417921 
    9600    898.21722   -25203.416   -26132.129   -28.657031   -99.709651    100.20538   -86.466824    41.209794    41.209794    82.419587 
    9700    895.82501   -25202.947   -26129.187   -98.064507   -509.50038    448.52638   -233.21952    41.210265    41.210265    82.420531 
    9800    891.62679   -25202.533   -26124.433    90.412657    -143.2114    82.784293    331.66507     41.20987     41.20987    82.419741 
    9900    896.33591   -25202.172    -26128.94   -44.056165   -296.72488    73.032285    91.524106    41.209034    41.209034    82.418068 
   10000    903.30402   -25201.796   -26135.769   -139.88176    124.59968   -151.52893   -392.71603    41.208194    41.208194    82.416389 
   10100    894.13941   -25201.446   -26125.943     120.4369    354.52984    645.00412   -638.22326    41.207535    41.207535    82.415071 
   10200    900.80153   -25201.094    -26132.48    -135.0457    292.56154    113.23294   -810.93158    41.207252    41.207252    82.414505 
   10300    894.07111   -25200.807   -26125.233    145.62254    69.149314    326.75693    40.961386     41.20678     41.20678     82.41356 
   10400    896.07165   -25200.509   -26127.004    111.12097    328.38977    -452.7039    457.67704    41.206921    41.206921    82.413842 
   10500    901.73535   -25200.238   -26132.589    8.0216859   -57.217325    210.74772   -129.46534    41.207571    41.207571    82.415141 
   10600    902.87038   -25199.948   -26133.472   -107.34461    348.26066   -517.04378    -153.2507    41.208772    41.208772    82.417545 
   10700      903.441   -25199.712   -26133.827   -89.959218    15.498642   -482.40925    197.03295    41.209686    41.209686    82.419373 
   10800     900.6313    -25199.48   -26130.689   -24.446877   -280.65439    37.069293    170.24446    41.210445    41.210445     82.42089 
   10900    900.96425     -25199.3   -26130.854   -2.8557941   -347.51742    266.19649    72.753545     41.21076     41.21076     82.42152 
   11000    896.43799   -25199.133   -26126.007    2.9531115    52.468687    287.85282   -331.46217     41.21079     41.21079     82.42158 
   11100    903.71119   -25198.969   -26133.363    -124.8004   -2.4168378   -174.65395   -197.33042    41.210625    41.210625     82.42125 
   11200    903.71437   -25198.818   -26133.215    -133.6551   -178.31762   -197.31153   -25.336161    41.210209    41.210209    82.420417 
   11300    904.18145   -25198.677   -26133.557   -31.155093    320.21517   -81.290851   -332.38959    41.209566    41.209566    82.419131 
   11400    903.92279    -25198.56   -26133.172    -146.4258   -71.204989   -121.92183   -246.15057    41.209068    41.209068    82.418136 
   11500    897.43455   -25198.465   -26126.369    212.98223     428.1315     51.88369     158.9315    41.208393    41.208393    82.416786 
   11600    902.70048   -25198.407   -26131.756   -30.335326   -110.45191   -45.856625    65.302555    41.208342    41.208342    82.416684 
   11700    908.39432   -25198.353   -26137.589   -290.48072    199.27191   -401.28436   -669.42972    41.208796    41.208796    82.417593 
   11800    902.71661   -25198.341   -26131.707    37.206435    289.96147    121.49247   -299.83464     41.20909     41.20909    82.418181 
   11900    894.29769   -25198.313   -26122.974    171.13148    36.815793    450.01822    26.560432    41.209751    41.209751    82.419501 
   12000    893.30524   -25198.229   -26121.864     207.5865    423.17391    80.387421    119.19816    41.210792    41.210792    82.421583 
   12100    886.68516   -25198.189   -26114.979    214.89174    204.65061    587.28811   -147.26349    41.211597    41.211597    82.423193 
   12200    907.19303   -25198.083   -26136.077   -310.09393     54.31953     -350.256   -634.34531    41.212606    41.212606    82.425213 
   12300    907.70027   -25197.982   -26136.501   -356.54367   -500.35426   -247.18761   -322.08915    41.213088    41.213088    82.426176 
   12400    897.02005   -25197.922   -26125.398    -3.260164   -311.40248    766.53929    -464.9173    41.212536    41.212536    82.425073 
   12500    895.01963   -25197.889   -26123.296    57.477659    -332.0736    53.817092    450.68948    41.211197    41.211197    82.422394 
   12600    903.43295    -25197.84   -26131.946    21.897916   -231.98726    64.304452    233.37655    41.209814    41.209814    82.419629 
   12700    891.02851   -25197.829    -26119.11    383.50577    718.44977    135.69039    296.37715    41.208515    41.208515    82.417031 
   12800    902.27056     -25197.8   -26130.704     81.59453    126.69037    204.94663   -86.853417    41.208045    41.208045     82.41609 
   12900     907.1028   -25197.759   -26135.659   -129.82104   -253.82431   -427.08753    291.44871    41.208133    41.208133    82.416267 
   13000    891.11802   -25197.742   -26119.115    323.39956    161.46202    288.40973    520.32692    41.208385    41.208385     82.41677 
   13100    893.03407   -25197.675   -26121.029     181.9904   -128.58314    602.77936    71.774986     41.20957     41.20957    82.419141 
   13200    901.94596   -25197.587   -26130.156   -66.578576     344.2541   -217.90963   -326.08019    41.210956    41.210956    82.421912 
   13300     892.6856   -25197.516    -26120.51    43.802304   -61.123571     44.29927    148.23121    41.211776    41.211776    82.423551 
   13400    898.79881   -25197.402   -26126.717   -135.87383   -357.93426   -206.55385    156.86661    41.212207    41.212207    82.424415 
   13500    901.99217   -25197.327   -26129.943   -86.835716   -615.78206    353.44667     1.828245    41.211618    41.211618    82.423236 
   13600    889.43305   -25197.257   -26116.888    309.70009    411.77171    89.415826    427.91274    41.210717    41.210717    82.421433 
   13700    892.75373     -25197.2   -26120.264    180.10383    487.09515    35.015071    18.201277    41.210165    41.210165     82.42033 
   13800    908.26185   -25197.129   -26136.228   -150.75087   -281.27081   -351.04807    180.06626    41.210111    41.210111    82.420221 
   13900    897.24973    -25197.11   -26124.823    19.169366    311.95968    -124.7667   -129.68489    41.209994    41.209994    82.419988 
   14000    899.98157   -25197.056   -26127.594   -46.936662    102.04098   -365.58467     122.7337    41.210045    41.210045     82.42009 
   14100     901.4184   -25197.027    -26129.05   -48.212993   -123.27664   -182.30893    160.94659    41.209726    41.209726    82.419451 
   14200    893.15335   -25197.028   -26120.506      181.602    91.815508    357.79506    95.195423    41.209123    41.209123    82.418246 
   14300    907.44164   -25196.967   -26135.218   -138.57776   -150.38544   -66.310269   -199.03755    41.209181    41.209181    82.418361 
   14400    889.24523   -25196.966   -26116.403    373.00735    -55.73532    315.09706     859.6603     41.20907     41.20907    82.418141 
   14500    906.83328   -25196.964   -26134.586   -155.10156   -162.83093   -357.44929    54.975536    41.209341    41.209341    82.418683 
   14600    890.13227       -25197   -26117.354    223.76672    389.76439   -90.286904    371.82266    41.209466    41.209466    82.418933 
   14700    902.14311   -25197.027     -26129.8   -56.220356    401.13661   -399.21889   -170.57879    41.209783    41.209783    82.419567 
   14800    899.22359   -25197.045   -26126.799    100.25957    231.78691    95.402873   -26.411074    41.210294    41.210294    82.420588 
   14900    894.29544   -25197.056   -26121.714    162.98596   -123.16304     546.6499    65.471035    41.211104    41.211104    82.422209 
   15000    911.42678   -25197.067   -26139.439   -246.97074   -497.49165    101.20359   -344.62415    41.211731    41.211731    82.423463 
   15100    892.06066   -25197.127   -26119.474    203.37877    266.40757    638.47335   -294.74461    41.211796    41.211796    82.423592 
   15200    889.68046   -25197.136   -26117.023    248.38778    273.87371    559.17521   -87.885575    41.212019    41.212019    82.424038 
   15300    888.96245    -25197.17   -26116.314    204.01249    421.68055    313.38321   -123.02629    41.212011    41.212011    82.424022 
   15400    914.85422    -25197.17   -26143.085   -414.41711   -1042.8925   -15.116105   -185.24271    41.212049    41.212049    82.424099 
   15500    899.80685   -25197.251   -26127.608   -94.941666    -269.2837    119.28392   -134.82522    41.210955    41.210955    82.421909 
   15600    894.00178   -25197.376   -26121.731    38.379055    47.124228     160.2101   -92.197159    41.209046    41.209046    82.418092 
   15700    903.77627    -25197.41   -26131.871    39.202619   -662.22353    290.87105    488.96033    41.207576    41.207576    82.415151 
   15800    900.48326   -25197.479   -26128.536    195.14971    439.52711    112.66164     33.26039    41.206356    41.206356    82.412711 
   15900    906.31812   -25197.512   -26134.601   -104.98377   -47.652569   -289.98677    22.688046     41.20645     41.20645    82.412899 
   16000    900.27217   -25197.583   -26128.421    101.04006    528.38618   -328.02831    102.76231     41.20695     41.20695    82.413899 
   16100    908.07824   -25197.622   -26136.531     -214.443   -184.31429   -500.25481      41.2401    41.208238    41.208238    82.416477 
   16200    899.44265   -25197.648   -26127.628   -29.927906    242.71399   -177.42002   -155.07769    41.209475    41.209475    82.418951 
   16300    898.18126   -25197.656   -26126.332   -8.3920716    509.36512   -302.24562   -232.29572    41.210784    41.210784    82.421567 
   16400    899.52505    -25197.68   -26127.746    -18.60845   -270.63324   -114.86368    329.67157    41.211795    41.211795    82.423591 
   16500    900.05297    -25197.71   -26128.322   -122.91691    172.78645   -323.03358   -218.50359     41.21234     41.21234     82.42468 
   16600    902.48029   -25197.689   -26130.811   -267.91408   -437.35075   -219.77434   -146.61715    41.212548    41.212548    82.425096 
   16700    895.44341   -25197.677   -26123.523    3.0763024   -359.61056    325.95527    42.884196    41.211708    41.211708    82.423415 
   16800    899.29405    -25197.68   -26127.507    88.237849    372.13556   -59.955038   -47.466972    41.210335    41.210335    82.420669 
   16900    903.02314   -25197.665   -26131.348     22.58632     67.83886    -172.5951    172.51519    41.209191    41.209191    82.418383 
   17000    895.82659   -25197.669   -26123.911    89.389943   -202.36868    386.15385    84.384659    41.208302    41.208302    82.416605 
   17100    903.74884   -25197.702   -26132.135    42.300843   -64.704172    206.49019   -14.883487    41.207736    41.207736    82.415471 
   17200     898.7626   -25197.768   -26127.045    164.39876   -229.61201    346.84245    375.96583    41.207669    41.207669    82.415337 
   17300    896.58831   -25197.817   -26124.846    142.87661    161.93899    299.84119   -33.150341    41.208369    41.208369    82.416739 
   17400    907.65101   -25197.895   -26136.362   -261.43883   -118.01862   -468.97526    -197.3226     41.20916     41.20916    82.418321 
   17500    886.24379   -25198.012   -26114.345    358.88308    22.768782    404.36742    649.51303    41.209397    41.209397    82.418794 
   17600    911.03659   -25198.056   -26140.024   -331.76217   -596.37806   -524.18764     125.2792    41.210213    41.210213    82.420426 
   17700    896.44171   -25198.124   -26125.002    51.299763   -10.825566    147.48513    17.239721    41.210301    41.210301    82.420603 
   17800    897.84326    -25198.18   -26126.507    -37.04661    33.666661       244.86   -389.66649    41.210282    41.210282    82.420564 
   17900    901.39008   -25198.174   -26130.168   -92.830233   -513.37198   -16.199851    251.08113    41.210395    41.210395     82.42079 
   18000    903.66976   -25198.192   -26132.543   -124.85357    -373.9188    -146.8331    146.19121    41.210103    41.210103    82.420205 
   18100    909.26726   -25198.189   -26138.328   -203.68707   -461.31146     -212.299    62.549259     41.20976     41.20976    82.419521 
   18200     900.3173   -25198.204   -26129.089    62.552855    227.91303    385.52125   -425.77572    41.209485    41.209485     82.41897 
   18300    895.86352   -25198.223   -26124.502   -5.5130519    301.37702   -155.50727   -162.40891    41.209352    41.209352    82.418703 
   18400    903.09768   -25198.224   -26131.984    16.520601   -87.422049    107.21809    29.765761    41.208944    41.208944    82.417889 
   18500    897.95199   -25198.214   -26126.653    53.030802   -365.50596    185.88758    338.71079    41.208815    41.208815    82.417629 
   18600    893.67217   -25198.188   -26122.202    262.10691    -60.91276    60.581153    786.65235    41.209046    41.209046    82.418092 
   18700    894.23437   -25198.118   -26122.713    145.95699    161.43692    38.781577    237.65246    41.210172    41.210172    82.420344 
   18800    900.90402   -25198.083   -26129.574   -87.882254    3.4999812   -510.50908    243.36233    41.211214    41.211214    82.422428 
   18900    905.30382   -25198.071   -26134.112   -150.66325   -612.94619   -76.507848    237.46428    41.211795    41.211795    82.423589 
   19000    902.08922   -25198.082   -26130.799     8.461493   -337.05423   -89.732234    452.17094    41.211756    41.211756    82.423512 
   19100    898.03282   -25198.082   -26126.605   -50.279057    -355.4374    288.71812   -84.117893    41.211713    41.211713    82.423427 
   19200    895.74527   -25198.063    -26124.22    57.281801    361.91774   -355.25602    165.18367    41.211443    41.211443    82.422886 
   19300    891.31065   -25198.031   -26119.603    190.31429    825.02333   -210.56386   -43.516603    41.211044    41.211044    82.422088 
   19400    899.53684   -25197.974   -26128.052  0.076648251   -382.34977   -417.93351    800.51323    41.210669    41.210669    82.421338 
   19500    898.21101    -25197.92   -26126.627   -16.433709    151.31549   -380.28318    179.66656    41.210135    41.210135    82.420271 
   19600    908.12955   -25197.875   -26136.837   -146.67455    -165.4026   -313.53887    38.917804    41.209544    41.209544    82.419088 
   19700    898.82482   -25197.824   -26127.165     59.27527    112.91958   -102.69475    167.60098     41.20913     41.20913     82.41826 
   19800     896.7711   -25197.788   -26125.006    95.728707   -570.51086   -98.397507    956.09449    41.209085    41.209085    82.418171 
   19900    903.20601   -25197.731   -26131.602     -129.649   -262.10711   -5.6948386   -121.14506     41.20956     41.20956     82.41912 
   20000     900.1379   -25197.675   -26128.374   -47.088568    79.995213   -318.27049    97.009578    41.209971    41.209971    82.419943 
   20100    903.42499   -25197.643   -26131.741   -70.821925    7.9144037   -223.90719    3.5270099    41.210097    41.210097    82.420195 
   20200    897.91355   -25197.581   -26125.981   -5.1426002    300.28805   -461.79612    146.08028    41.210433    41.210433    82.420865 
   20300    894.24227   -25197.535   -26122.139    156.27817    145.18898    111.94404     211.7015    41.210447    41.210447    82.420894 
   20400    889.81254   -25197.523   -26117.546    162.98816    255.78335   -243.94978    477.13092    41.210154    41.210154    82.420308 
   20500    896.02029   -25197.479   -26123.921    63.844712     22.16681    661.87792   -492.51059    41.209778    41.209778    82.419557 
   20600    885.83675   -25197.473   -26113.386    409.79666    530.50823    487.36988    211.51189    41.208914    41.208914    82.417829 
   20700    908.63953   -25197.446   -26136.936   -144.58382    301.88598   -250.86722   -484.77023    41.208536    41.208536    82.417072 
   20800    898.08824   -25197.449   -26126.029    151.17218    763.77869   -160.00848   -150.25367    41.208537    41.208537    82.417074 
   20900    909.10275   -25197.423   -26137.392   -215.46724   -96.909246   -317.87618   -231.61629    41.209521    41.209521    82.419042 
   21000     900.8615   -25197.439   -26128.886     70.68703    861.05739   -891.94736    242.95106    41.210488    41.210488    82.420976 
   21100    895.70973   -25197.458   -26123.578    10.000033   -87.805772     450.8324   -333.02653    41.211461    41.211461    82.422922 
   21200    889.32562   -25197.455   -26116.975    130.53518   -77.240827    104.88308    363.96327    41.212133    41.212133    82.424266 
   21300    904.43025   -25197.407   -26132.544   -236.17546   -360.11873   -229.47852   -118.92914      41.2125      41.2125       82.425 
   21400    901.08612   -25197.382   -26129.062    -111.7104   -119.35836    47.945377    -263.7182    41.211919    41.211919    82.423839 
   21500    900.89339    -25197.33    -26128.81   -111.39312   -74.957135   -434.93018    175.70796    41.211171    41.211171    82.422343 
   21600    903.39853   -25197.337   -26131.407   -39.045264    66.372701   -850.24421    666.73571    41.209774    41.209774    82.419549 
   21700    907.49083   -25197.313   -26135.615   -102.58076   -97.540209   -73.966228   -136.23585    41.208734    41.208734    82.417467 
   21800    907.87567   -25197.285   -26135.984     -60.9578     161.7326   -424.25193    79.645932    41.208288    41.208288    82.416577 
   21900    906.90423   -25197.261   -26134.956    38.867546   -117.31369    296.05679   -62.140461    41.208579    41.208579    82.417159 
   22000    889.14704   -25197.312   -26116.647    320.11376    404.46682     296.2819    259.59255    41.209151    41.209151    82.418302 
   22100    902.36484   -25197.337   -26130.339   -87.681733    139.08799   -203.21128    -198.9219    41.210331    41.210331    82.420663 
   22200    892.25979   -25197.393   -26119.947    115.35122    -373.8549    273.94076    445.96779    41.211077    41.211077    82.422155 
   22300    904.69528   -25197.431   -26132.842   -130.50793    165.70926   -246.35032   -310.88274    41.211578    41.211578    82.423157 
   22400    897.26512   -25197.473   -26125.202   -56.979663   -167.60324   -261.91422    258.57848    41.211565    41.211565    82.423129 
   22500    900.93368   -25197.477   -26128.999   -28.489314   -257.79916   -25.283514    197.61473    41.211364    41.211364    82.422729 
   22600    901.30447   -25197.526   -26129.431   -11.262811   -119.92545    182.63105   -96.494034    41.210629    41.210629    82.421258 
   22700    900.25037   -25197.543   -26128.359    105.60623    235.17812    22.330324    59.310241    41.209908    41.209908    82.419816 
   22800    904.14559   -25197.542   -26132.385   -10.380099    248.49302   -294.07839    14.445073    41.209627    41.209627    82.419253 
   22900    902.32039   -25197.566   -26130.522   -36.887774    470.71514     32.81303   -614.19149    41.209421    41.209421    82.418841 
   23000    906.49953   -25197.569   -26134.846   -74.128245   -67.052437   -129.93023   -25.402071    41.209599    41.209599    82.419198 
   23100    895.10392   -25197.607   -26123.102    186.45557     382.2643    140.39499    36.707428    41.209951    41.209951    82.419901 
   23200    909.61633   -25197.658   -26138.158   -336.74226    36.225845   -643.37674   -403.07587    41.210437    41.210437    82.420874 
   23300    898.11446   -25197.728   -26126.336    139.69914    598.52876    5.1761756   -184.60753    41.210424    41.210424    82.420848 
   23400     896.0847    -25197.74   -26124.249    69.538707   -249.90681    658.29827   -199.77534    41.210998    41.210998    82.421996 
   23500    904.86274   -25197.755   -26133.339   -186.77094   -183.67566   0.13902753   -376.77619    41.211292    41.211292    82.422584 
   23600    901.64469   -25197.765   -26130.022   -80.356916    292.75436   -546.54888    12.723767    41.211205    41.211205     82.42241 
   23700    892.19501   -25197.814     -26120.3    135.39666   -78.600885   -175.22575     660.0166    41.210532    41.210532    82.421063 
   23800    905.13519   -25197.859   -26133.726   -84.059805   -87.348496   -133.33991   -31.491009    41.209948    41.209948    82.419895 
   23900    900.66337   -25197.897    -26129.14    42.825498    106.79544   -136.74526    158.42632    41.209634    41.209634    82.419268 
   24000    898.80754   -25197.947   -26127.271    18.857321   -188.63003    186.67359    58.528404    41.209498    41.209498    82.418996 
   24100    891.97313       -25198   -26120.258    331.38697    382.15654    268.33524    343.66914    41.209479    41.209479    82.418958 
   24200    899.75779   -25198.065   -26128.371    48.093939    241.41135   -229.63354      132.504    41.209698    41.209698    82.419396 
   24300    907.31875   -25198.096    -26136.22   -168.40496   -436.65564    126.56323   -195.12248    41.210299    41.210299    82.420597 
   24400    896.11712   -25198.181   -26124.723    68.808309    355.48491    -381.6836    232.62361    41.210503    41.210503    82.421006 
   24500    907.40452   -25198.236   -26136.449   -304.11817   -526.16936   -364.35624   -21.828924    41.210886    41.210886    82.421772 
   24600    900.22775   -25198.296   -26129.088    -86.84198   -187.22652   -302.13728    228.83786    41.210826    41.210826    82.421652 
   24700    889.28823   -25198.361   -26117.842    199.56179    84.850804    345.19739    168.63719    41.210444    41.210444    82.420887 
   24800    898.80088   -25198.366   -26127.683   -2.5403066    157.38038   -149.15051   -15.850795    41.210356    41.210356    82.420713 
   24900    901.52193   -25198.409    -26130.54   -129.04495   -231.65661   -75.809558   -79.668694    41.209945    41.209945    82.419889 
   25000    895.74457    -25198.42   -26124.577    126.01147    205.36726    103.09214    69.575011    41.209694    41.209694    82.419387 
   25100    912.67853   -25198.396   -26142.062   -303.95117   -785.34064    35.538987   -162.05186    41.209866    41.209866    82.419732 
   25200     894.4119   -25198.424   -26123.203    143.61245    53.480847   -285.58176    662.93826    41.209633    41.209633    82.419266 
   25300    897.32913   -25198.441   -26126.236    135.42446   -273.08877   -21.253665    700.61582    41.209513    41.209513    82.419026 
   25400    905.62794   -25198.507   -26134.883   -121.99001   -64.825648   -418.70536    117.56097    41.209201    41.209201    82.418401 
   25500    887.10248   -25198.555   -26115.777    463.74062   -71.536018    929.88088      532.877    41.209214    41.209214    82.418428 
   25600    895.99631    -25198.54   -26124.957    93.629601   -112.36813   -94.845502    488.10244    41.210317    41.210317    82.420634 
   25700    892.91467   -25198.559    -26121.79    235.47289    92.937854    435.93379    177.54704    41.211157    41.211157    82.422313 
   25800    911.11199   -25198.636   -26140.682   -317.42909   -465.81347   -236.74601   -249.72778    41.211254    41.211254    82.422508 
   25900    900.34854   -25198.709   -26129.626    6.2559104     79.50498    389.81422   -450.55147    41.210982    41.210982    82.421964 
   26000    910.22497   -25198.752   -26139.881   -183.00679   -295.15354    315.89778   -569.76463    41.211011    41.211011    82.422022 
   26100      898.138   -25198.799   -26127.431     61.96465   -87.766793    237.84951    35.811234    41.210979    41.210979    82.421958 
   26200     896.8149    -25198.85   -26126.113   -67.780712    338.65077    -216.5224    -325.4705    41.210872    41.210872    82.421743 
   26300    898.58552   -25198.863   -26127.957   -67.758761    307.85558   -236.85494   -274.27692    41.210639    41.210639    82.421278 
   26400    908.05217    -25198.89   -26137.773   -233.56352   -30.882765   -618.77185   -51.035941    41.209945    41.209945    82.419889 
   26500     900.5288   -25198.886   -26129.989   -50.810905    486.08668   -468.56478   -169.95461     41.20938     41.20938     82.41876 
   26600    901.38189   -25198.838   -26130.823   -63.217552    318.12744   -375.66128   -132.11881    41.209306    41.209306    82.418611 
   26700    894.02146     -25198.8   -26123.175    252.16965    246.89754    499.13232    10.479079    41.209144    41.209144    82.418288 
   26800    895.31097   -25198.798   -26124.506    86.507293     479.6743   -304.95643    84.804007    41.209115    41.209115    82.418231 
   26900    894.20481   -25198.778   -26123.342    68.885543    -22.93674   -79.698654    309.29202    41.209215    41.209215     82.41843 
   27000    896.76231    -25198.78    -26125.99    92.254045   -206.24608    241.43046    241.57775    41.209219    41.209219    82.418439 
   27100    905.22024   -25198.763   -26134.717   -117.37046   -108.14858   -211.03557   -32.927236    41.209632    41.209632    82.419264 
   27200    898.48381    -25198.78    -26127.77   -28.271415   -319.14872   -21.629516      255.964    41.209911    41.209911    82.419822 
   27300    901.36479   -25198.757   -26130.724   -82.723462   -409.22007    63.936856    97.112831    41.210566    41.210566    82.421131 
   27400    902.39047   -25198.695   -26131.724   -162.53917   -247.43801    199.50535   -439.68483    41.211446    41.211446    82.422891 
   27500    902.06459   -25198.667   -26131.358   -186.37004   -328.08438    388.33374   -619.35947    41.211587    41.211587    82.423174 
   27600    898.88803   -25198.622   -26128.029    81.146079   -693.21996    258.47423    678.18396     41.21116     41.21116     82.42232 
   27700    889.87996   -25198.625   -26118.718    257.26598   -107.64813    479.61927    399.82681    41.210426    41.210426    82.420852 
   27800    912.49329   -25198.614   -26142.088   -220.11311   -519.08126    24.533095   -165.79117    41.209941    41.209941    82.419883 
   27900     902.4283   -25198.621   -26131.688   -25.638914   -242.73864    -146.9159     312.7378     41.20945     41.20945      82.4189 
   28000    892.18968   -25198.648   -26121.129    250.31117    236.83807    432.94573    81.149722    41.208931    41.208931    82.417861 
   28100    904.17464   -25198.597    -26133.47   -98.489926   -10.220041   -653.35606    368.10633    41.208972    41.208972    82.417943 
   28200    906.45291   -25198.568   -26135.797   -126.99038   -240.70567    197.08546   -337.35094    41.208787    41.208787    82.417573 
   28300    899.16713     -25198.5   -26128.195    68.588326   -55.306562    224.26429    36.807251    41.209142    41.209142    82.418283 
   28400    892.11738   -25198.415   -26120.821    288.60831    304.14537    434.55381    127.12574    41.209997    41.209997    82.419994 
   28500    908.70783   -25198.364   -26137.924   -342.21194   -177.82853   -322.34047   -526.46681    41.210952    41.210952    82.421904 
   28600    903.30519    -25198.32   -26132.294    -122.9559   -40.275239   -164.94027   -163.65219    41.211409    41.211409    82.422818 
   28700    907.52635   -25198.322   -26136.661   -319.69836   -751.07915    36.665499   -244.68143    41.211404    41.211404    82.422808 
   28800    896.63851   -25198.332   -26125.413   0.15455705   -304.28944    -40.94482    345.69793    41.210855    41.210855     82.42171 
   28900    897.13095    -25198.29   -26125.881    73.444765   -23.744264   -106.00287    350.08143    41.210543    41.210543    82.421086 
   29000    892.60604     -25198.2   -26121.111    181.46364    125.94991    52.013693    366.42732    41.210729    41.210729    82.421457 
   29100     904.1846   -25198.105   -26132.988   -167.50306   -332.70095   -153.06496   -16.743261    41.210882    41.210882    82.421765 
   29200    896.13148   -25198.032   -26124.589   -13.649869   -493.30579    613.27785   -160.92167    41.210652    41.210652    82.421303 
   29300    895.71602   -25197.959   -26124.087    160.82778    38.848268    48.608083    395.02699    41.210073    41.210073    82.420146 
   29400    899.18363   -25197.878   -26127.591    23.364335   -364.24318    215.18839    219.14779    41.209889    41.209889    82.419778 
   29500    903.65839   -25197.776   -26132.116   -130.29106   -802.35748    230.89703    180.58727    41.209946    41.209946    82.419893 
   29600    894.58958    -25197.71   -26122.672    229.23257    125.27066    350.46296    211.96408    41.209579    41.209579    82.419158 
   29700    902.39357   -25197.675   -26130.707   -152.72278   -102.07566   -457.54025    101.44759    41.209681    41.209681    82.419361 
   29800    893.89765   -25197.603    -26121.85    203.17847   -85.683983    163.63954    531.57985    41.210118    41.210118    82.420236 
   29900     899.5923   -25197.556   -26127.692   -57.899811   -375.18099    55.803787    145.67777    41.210566    41.210566    82.421131 
   30000    910.68996   -25197.483   -26139.092   -208.92704   -268.07114   -155.91044   -202.79954    41.210722    41.210722    82.421444 
   30100    907.18975   -25197.469   -26135.459   -162.60486   -687.19185    120.12959    79.247683    41.210546    41.210546    82.421092 
   30200    898.79435   -25197.457   -26126.767    31.137373   -404.01406     447.8497    49.576484    41.210345    41.210345    82.420691 
   30300    906.88032   -25197.447   -26135.118   -112.19559    -613.4919    7.2053186     269.6998    41.210218    41.210218    82.420435 
   30400    893.54634   -25197.422   -26121.306    154.39509    444.43961    225.00816    -206.2625    41.210415    41.210415    82.420831 
   30500    903.54038   -25197.389   -26131.606   -60.241886   -831.56982    64.046697    586.79746    41.210863    41.210863    82.421727 
   30600    895.34103    -25197.39    -26123.13    18.865361   -415.99605    80.132945    392.45919    41.210946    41.210946    82.421893 
   30700     908.9542   -25197.371   -26137.186   -259.77203   -540.00269   -435.26211    195.94871    41.210855    41.210855    82.421711 
   30800    905.39244   -25197.361   -26133.493   -142.38412   -389.09634    75.919598   -113.97561    41.210369    41.210369    82.420739 
   30900    905.13144   -25197.382   -26133.245   -33.240614    388.11424   -813.64658     325.8105    41.209685    41.209685    82.419369 
   31000     909.5153   -25197.394   -26137.789   -199.17299   -425.06869    -351.1379    178.68763    41.209358    41.209358    82.418715 
   31100     895.9166    -25197.41   -26123.745    161.36899    121.25577    121.74177    241.10942    41.209244    41.209244    82.418489 
   31200    898.22922   -25197.422   -26126.148    151.96407    366.42357    258.78691   -169.31825    41.209559    41.209559    82.419118 
   31300    906.61445   -25197.465   -26134.861   -276.70693   -36.327951   -420.59421   -373.19864    41.210122    41.210122    82.420244 
   31400    900.50074   -25197.474   -26128.549    95.447798    253.16274    343.99907   -310.81841    41.210986    41.210986    82.421972 
   31500     900.2322   -25197.497   -26128.293   -92.737973   -216.76851   -220.04725    158.60185     41.21215     41.21215      82.4243 
   31600    895.66931   -25197.525   -26123.604   -56.908669    134.05806   -337.77747    32.993397    41.212937    41.212937    82.425874 
   31700    900.04178   -25197.567   -26128.167   -133.60196   -102.02255   -553.10716    254.32382     41.21279     41.21279    82.425579 
   31800    904.37265   -25197.614   -26132.692   -173.09515   -720.94948   -293.66109    495.32514     41.21181     41.21181     82.42362 
   31900    902.98978   -25197.647   -26131.295   -20.951281    145.73328   -371.65737    163.07024    41.210607    41.210607    82.421213 
   32000    902.73392   -25197.702   -26131.085   -115.26187   -18.023265   -275.43727   -52.325078    41.209462    41.209462    82.418924 
   32100    902.12434   -25197.773   -26130.526    70.027803    588.75964   -556.36381    177.68758    41.208253    41.208253    82.416505 
   32200    912.56891   -25197.798   -26141.351   -248.41295   -45.730378   -474.40067   -225.10782    41.207859    41.207859    82.415719 
   32300    896.91561   -25197.869   -26125.237    185.44657    245.80364    401.78133   -91.245264    41.207938    41.207938    82.415876 
   32400    897.52525   -25197.936   -26125.934    141.24346    326.18026    248.27065   -150.72053    41.208987    41.208987    82.417974 
   32500    904.01218   -25197.974   -26132.679   -146.07011    16.122387    -57.74742   -396.58531    41.210715    41.210715    82.421431 
   32600    899.46642   -25198.044   -26128.049   -128.67654    53.609696   -313.79856   -125.84075    41.211691    41.211691    82.423382 
   32700    893.65076   -25198.143   -26122.135    73.794838    -20.00411    67.348392    174.04023    41.211655    41.211655    82.423309 
   32800    895.46528   -25198.195   -26124.063    20.936836   -509.54305     96.08084    476.27271    41.211279    41.211279    82.422558 
   32900      896.596   -25198.208   -26125.245    49.593078    232.67155   -293.22928    209.33697    41.210609    41.210609    82.421218 
   33000    909.70376   -25198.194   -26138.784    -246.5271   -239.95039     -594.887    95.256088    41.209864    41.209864    82.419728 
   33100    899.41332   -25198.177   -26128.128     187.5351    53.244871    296.90057    212.45985    41.209258    41.209258    82.418516 
   33200    898.07997   -25198.172   -26126.743     186.2652    66.942868    29.470112    462.38261    41.209174    41.209174    82.418347 
   33300    895.04355   -25198.205   -26123.637    145.35282   -53.017675    162.07111    327.00503    41.209196    41.209196    82.418392 
   33400    901.05032   -25198.202   -26129.845   -19.045126     73.27722   -495.49392    365.08132    41.209484    41.209484    82.418967 
   33500    895.68098   -25198.171   -26124.262     188.7846   -148.87128    246.09697     469.1281    41.209998    41.209998    82.419996 
   33600    900.43986    -25198.12   -26129.132   -60.031104   -26.541205   -282.98805    129.43595    41.210948    41.210948    82.421896 
   33700    901.22875   -25198.071   -26129.898   -64.627197   -61.497726   -69.355145    -63.02872    41.211556    41.211556    82.423112 
   33800    899.27541   -25198.039   -26127.846    -36.27595    4.4389854    372.81619   -486.08303    41.211621    41.211621    82.423243 
   33900     902.5745   -25198.008   -26131.227   -88.487186   -116.31517   -95.369904   -53.776484    41.211172    41.211172    82.422343 
   34000     896.6035       -25198   -26125.045    87.620521    262.34088     84.28435   -83.763669    41.210365    41.210365     82.42073 
   34100    914.32211    -25197.97   -26143.336   -384.78481   -392.42673   -383.12957   -378.79813    41.210083    41.210083    82.420166 
   34200    897.97351   -25197.974   -26126.436    172.54301    191.18325    314.78414    11.661631    41.209642    41.209642    82.419283 
   34300    903.62338   -25197.959   -26132.262    51.780693    493.52887   -198.44198   -139.74481    41.209847    41.209847    82.419694 
   34400    893.29616   -25197.954   -26121.579    189.39985    364.98962    264.68302   -61.473094    41.210433    41.210433    82.420865 
   34500    902.99412   -25197.923   -26131.576   -154.72535    335.66593   -108.57112   -691.27086    41.211269    41.211269    82.422537 
   34600    903.43917   -25197.884   -26131.997   -163.05392    27.941663   -588.82479    71.721354    41.212006    41.212006    82.424013 
   34700    898.65559   -25197.852   -26127.018   -65.703734   -393.52269    169.22527    27.186225    41.212287    41.212287    82.424573 
   34800    900.42555   -25197.832   -26128.829   -114.05994    86.261996    165.75941   -594.20121    41.211978    41.211978    82.423956 
   34900    897.45257   -25197.829   -26125.751   -25.838709   -68.772166   -30.910736    22.166775    41.211118    41.211118    82.422236 
   35000    892.82988   -25197.829   -26120.972    215.88095    418.49887     132.5833    96.560679    41.209959    41.209959    82.419919 
   35100    904.34678   -25197.831   -26132.882    -55.45218   -81.661463    69.797043   -154.49212     41.20896     41.20896     82.41792 
   35200     894.3485   -25197.823   -26122.536     300.1183     395.6479     769.6124   -264.90541    41.208294    41.208294    82.416587 
   35300    901.05479    -25197.83   -26129.477    35.403649    506.24295   -533.43963    133.40762    41.208224    41.208224    82.416448 
   35400    904.68374   -25197.801   -26133.201   -9.5695004    340.02223   -375.45288    6.7221497    41.208757    41.208757    82.417514 
   35500    902.13599   -25197.781   -26130.546   -9.2233589   -228.11745     276.9677    -76.52032    41.209478    41.209478    82.418955 
   35600    903.60123   -25197.758   -26132.038   -187.58977   -523.20052   -624.78391    585.21511    41.210376    41.210376    82.420752 
   35700    905.97874   -25197.728   -26134.467   -183.64142   -373.49804   -230.23101    52.804778    41.211156    41.211156    82.422311 
   35800    902.77306   -25197.683   -26131.107   -144.95113   -317.97247   -38.596093   -78.284824    41.211799    41.211799    82.423598 
   35900    909.22696   -25197.639   -26137.736   -318.52641   -537.84274   -245.21229   -172.52421    41.211864    41.211864    82.423729 
   36000    903.48312   -25197.593   -26131.752    -156.5323   -463.07912    261.55412   -268.07189    41.211493    41.211493    82.422987 
   36100    899.51887   -25197.518   -26127.577   -58.993769    37.708377   -317.15778    102.46809    41.210911    41.210911    82.421822 
   36200    897.62783   -25197.456    -26125.56    34.231532   -108.01916    230.92428   -20.210521    41.210045    41.210045     82.42009 
   36300    901.81008   -25197.393   -26129.821    -64.15674   -296.03697    149.27145   -45.704703    41.209594    41.209594    82.419189 
   36400     888.1497   -25197.337   -26115.641    307.88093   -117.61935    523.64737    517.61479    41.209447    41.209447    82.418895 
   36500    896.48111   -25197.271    -26124.19    61.137371    27.080594      160.204   -3.8724768    41.209727    41.209727    82.419455 
   36600    899.64083   -25197.231   -26127.416    81.189776    209.64394   -284.27692    318.20231    41.209959    41.209959    82.419917 
   36700    894.81328   -25197.214   -26122.408    244.50894    93.158338   -72.503116    712.87161    41.210228    41.210228    82.420457 
   36800    898.08719   -25197.225   -26125.804    64.245187   -13.731556    474.05974   -267.59262    41.210803    41.210803    82.421606 
   36900     903.9033   -25197.258    -26131.85   -102.91072   -340.05419   -241.03544    272.35748    41.211248    41.211248    82.422496 
   37000    898.13969   -25197.297    -26125.93    43.601017   -8.7838223   -424.35317    563.94005    41.211324    41.211324    82.422648 
   37100    901.86052    -25197.33    -26129.81    -138.5053   -225.84308   -206.31678    16.643959    41.211317    41.211317    82.422634 
   37200    903.48278   -25197.357   -26131.515   -111.21085   -181.93629   -309.55228    157.85602    41.211037    41.211037    82.422074 
   37300     897.5883   -25197.413   -26125.476    57.746801    260.48958    361.75224   -449.00142    41.210355    41.210355     82.42071 
   37400    893.51453   -25197.451   -26121.302    123.45221   -39.075403     503.9152   -94.483162    41.209593    41.209593    82.419186 
   37500    889.49805   -25197.461   -26117.159    316.98172    741.38095    319.87734   -110.31312    41.208986    41.208986    82.417972 
   37600    910.93296   -25197.429    -26139.29   -180.23026   -780.40655     360.6394   -120.92365    41.209167    41.209167    82.418334 
   37700     907.4372   -25197.457   -26135.704    -102.6618    512.12733   -249.42505   -570.68767    41.209114    41.209114    82.418229 
   37800    890.80621   -25197.537   -26118.588      316.602    300.34099    385.64392    263.82109    41.208848    41.208848    82.417696 
   37900    906.08793   -25197.537   -26134.389   -151.73168    316.31076   -114.89932   -656.60647    41.209484    41.209484    82.418968 
   38000    893.90249   -25197.574   -26121.826    183.57564     211.5595     146.1496    193.01781    41.209981    41.209981    82.419962 
   38100      890.523    -25197.58   -26118.338    203.62044    285.14447    581.49218   -255.77534    41.210774    41.210774    82.421548 
   38200    900.27852   -25197.526   -26128.371   -138.17442    -196.3891   -527.23929    309.10513    41.211705    41.211705    82.423409 
   38300    899.99448     -25197.5   -26128.051   -1.8731466    243.04609   -14.283572   -234.38196    41.211718    41.211718    82.423437 
   38400    896.31885   -25197.486   -26124.237     83.33655    50.217917   -12.878782    212.67052    41.211309    41.211309    82.422619 
   38500     889.5204   -25197.481   -26117.203    235.59886    434.67762    195.67339    76.445559    41.210667    41.210667    82.421334 
   38600    894.95138   -25197.492   -26122.829    81.897445    540.44177   -68.961623   -225.78781    41.209921    41.209921    82.419841 
   38700    902.68737   -25197.491   -26130.826   -39.822174   -166.69378    152.34693   -105.11967    41.209347    41.209347    82.418694 
   38800    891.84696   -25197.536   -26119.663     288.4688   -69.073956    538.03122    396.44914    41.208752    41.208752    82.417504 
   38900    901.17648   -25197.544   -26129.317    25.592837     46.75752    154.01025   -123.98926    41.208963    41.208963    82.417926 
   39000     911.6287    -25197.54    -26140.12   -308.63877   -133.70972   -631.37112   -160.83548    41.209702    41.209702    82.419403 
   39100    901.51464   -25197.585   -26129.707   -36.674156   -531.72756    315.81325    105.89185    41.210156    41.210156    82.420311 
   39200    907.91145   -25197.589   -26136.325   -207.94714   -106.22749    159.61644   -677.23037    41.210822    41.210822    82.421644 
   39300    902.61958   -25197.564   -26130.829   -56.375792   -247.48964    -26.72264    105.08491    41.211519    41.211519    82.423039 
   39400    903.53166   -25197.543   -26131.751    -247.1922    343.91068   -551.14395   -534.34334    41.212069    41.212069    82.424139 
   39500     901.8741   -25197.553   -26130.047    -42.57654    216.69013    35.312248   -379.73199    41.211874    41.211874    82.423748 
   39600    895.15678   -25197.545   -26123.094   -37.516976    69.970972   -88.543127   -93.978774    41.211511    41.211511    82.423022 
   39700    893.61379   -25197.513   -26121.466    31.726346    100.98641   -317.89169    312.08431    41.210743    41.210743    82.421486 
   39800    894.60996   -25197.487   -26122.471    133.67631    194.89666   -95.871186    302.00347    41.209716    41.209716    82.419433 
   39900    900.13376   -25197.461   -26128.156    158.91049    286.73028    174.24369     15.75751    41.208505    41.208505     82.41701 
   40000    893.13055   -25197.456    -26120.91      311.277    810.51843    257.64063   -134.32805    41.207679    41.207679    82.415358 
   40100    902.83651   -25197.438   -26130.927    128.37412    237.89063    79.330752     67.90099    41.207684    41.207684    82.415367 
   40200    904.68611   -25197.444   -26132.846    97.950441    35.796277    278.58738   -20.532331    41.208208    41.208208    82.416416 
   40300    899.96712   -25197.473   -26127.996   -25.527739   -122.75814   -645.80773    691.98265    41.209437    41.209437    82.418873 
   40400    902.79323    -25197.49   -26130.935   -113.79771   -326.07314    176.73932   -192.05931    41.210974    41.210974    82.421949 
   40500    895.91144   -25197.527   -26123.857   -42.513695    334.61303   -92.169023   -369.98509    41.212128    41.212128    82.424255 
   40600    899.28671   -25197.552   -26127.371   -107.81087    243.30969   -452.41823   -114.32407    41.212607    41.212607    82.425214 
   40700    893.81694   -25197.554   -26121.718    58.333133   -66.567881   -244.59685    486.16413    41.212555    41.212555    82.425109 
   40800    908.01718   -25197.503   -26136.349   -319.68837   -241.37334   -686.99192   -30.699837    41.212306    41.212306    82.424612 
   40900    898.27676   -25197.505    -26126.28   -5.1997901   -120.11244    -492.8384    597.35148    41.211061    41.211061    82.422123 
   41000     914.6455    -25197.46   -26143.159   -373.16035   -487.62586   -405.36933   -226.48587    41.209826    41.209826    82.419652 
   41100    897.47243   -25197.453   -26125.396     144.7049    256.22328   -245.53859    423.43001     41.20846     41.20846     82.41692 
   41200    903.36467   -25197.446   -26131.482    112.62234   -95.666524    350.87207    82.661455    41.207891    41.207891    82.415781 
   41300    903.40642   -25197.461    -26131.54    52.022202   -513.38429    705.20829   -35.757402    41.208152    41.208152    82.416304 
   41400    895.20001   -25197.512   -26123.106    156.28426   -102.14077    136.57186     434.4217    41.208842    41.208842    82.417684 
   41500    903.87525   -25197.586   -26132.149    -85.02891   -329.86429    88.767299    -13.98974    41.209752    41.209752    82.419504 
   41600    897.15699   -25197.615   -26125.232    6.4370617   -327.71625    278.24149    68.785941    41.210918    41.210918    82.421837 
   41700    912.10089   -25197.595   -26140.663    -414.1031   -176.18302   -765.67374   -300.45256    41.212117    41.212117    82.424233 
   41800    893.39133    -25197.57   -26121.294    78.753062   -99.769842    383.69325   -47.664223    41.212567    41.212567    82.425134 
   41900    894.71881   -25197.558   -26122.654  -0.58715045   -105.29761    71.854607     31.68155    41.212372    41.212372    82.424745 
   42000    898.62843    -25197.57   -26126.709   -116.33373   -274.38741      -227.25    152.63621     41.21143     41.21143    82.422859 
   42100    898.90673   -25197.583   -26127.009    88.836541    5.0422009    401.61686   -140.14944    41.210085    41.210085     82.42017 
   42200    911.99025   -25197.575   -26140.529   -206.43633   -973.81173    737.74495    -383.2422    41.209008    41.209008    82.418015 
   42300     897.7608   -25197.613   -26125.855    106.71611    -191.1478    629.61577   -118.31963    41.207867    41.207867    82.415734 
   42400    903.21639   -25197.657    -26131.54    69.899558    -180.4216     446.0047   -55.884418    41.207101    41.207101    82.414203 
   42500    905.44952   -25197.669    -26133.86    37.354168   -518.13159    206.41446    423.77964    41.207404    41.207404    82.414808 
   42600    901.04762   -25197.628   -26129.268   -1.3492454   -307.95604    80.969208     222.9391    41.208768    41.208768    82.417536 
   42700    894.89092   -25197.585   -26122.859    64.612836    142.55401   -97.517126    148.80163     41.21043     41.21043    82.420861 
   42800    896.10388   -25197.548   -26124.077   -13.292908   -709.35413    635.54026    33.935151     41.21171     41.21171    82.423421 
   42900    893.40043    -25197.53   -26121.263    24.293852   -274.40243    100.98372    246.30027    41.212268    41.212268    82.424536 
   43000    909.78808   -25197.502   -26138.179   -272.45689   -389.44538    -39.90955   -388.01575    41.212062    41.212062    82.424125 
   43100    895.03907   -25197.539   -26122.966    128.56423    112.01631    115.85249    157.82388    41.210854    41.210854    82.421708 
   43200    907.48236   -25197.494   -26135.788   -188.73967   -241.63266    191.93062   -516.51698    41.210288    41.210288    82.420576 
   43300    883.28062   -25197.521   -26110.791    491.52464    544.04924    329.44992    601.07475    41.209347    41.209347    82.418694 
   43400    897.32359   -25197.498   -26125.288    41.026338   -371.13283    755.68674   -261.47489    41.209151    41.209151    82.418302 
   43500    899.61178   -25197.512   -26127.667    186.82425   -163.27163    648.43889    75.305496     41.20895     41.20895      82.4179 
   43600    904.68046   -25197.565   -26132.961   -13.280674   -130.69981   -77.876271    168.73406    41.209157    41.209157    82.418313 
   43700    905.70826   -25197.653   -26134.111   -152.86925   -471.50337    214.51287   -201.61725    41.209433    41.209433    82.418867 
   43800    894.75315   -25197.701   -26122.832    182.52069   -89.345154    685.73597   -48.828745    41.210077    41.210077    82.420155 
   43900    898.71573   -25197.725   -26126.954    59.263806    63.116871   -64.092731    178.76728    41.211122    41.211122    82.422244 
   44000    896.23519   -25197.784   -26124.448    102.11992   -420.69217    94.349905    632.70203    41.211827    41.211827    82.423654 
   44100    904.81004   -25197.841   -26133.371   -155.20516   -34.826681   -106.38834   -324.40045    41.212477    41.212477    82.424953 
   44200    901.56406   -25197.918   -26130.092    -228.3349   -530.27097   -54.093603   -100.64012    41.212835    41.212835    82.425669 
   44300    893.80107   -25197.972   -26122.119    36.685729    129.43499   -351.63196    332.25416    41.212544    41.212544    82.425088 
   44400      901.145    -25197.97    -26129.71   -155.78587   -386.50613    417.29115   -498.14264    41.212049    41.212049    82.424098 
   44500    905.25547   -25197.983   -26133.974   -193.30844   -104.68949    134.69773   -609.93356    41.210787    41.210787    82.421575 
   44600    901.25136   -25197.968   -26129.819   -56.714154     599.0397   -636.73707   -132.44509    41.209422    41.209422    82.418844 
   44700    894.51769   -25197.956   -26122.844    176.38189    352.06339    367.93205   -190.84977    41.208293    41.208293    82.416587 
   44800    904.84072   -25197.933   -26133.495   -24.817947    -38.74841   -321.99064    286.28521    41.207773    41.207773    82.415545 
   44900    899.01253   -25197.897   -26127.433    94.995193    581.94232   -262.22971   -34.727037    41.208188    41.208188    82.416377 
   45000    895.70385   -25197.862   -26123.977    136.75505   -38.651073   -253.76391    702.68014    41.209196    41.209196    82.418392 
   45100    895.28137   -25197.833    -26123.51    52.227371   -165.81128   -150.41567    472.90906     41.21019     41.21019    82.420379 
   45200    896.09345   -25197.791   -26124.308    -12.20969   -12.641661   -13.614075   -10.373335     41.21108     41.21108    82.422161 
   45300    897.33443    -25197.69    -26125.49    31.439435   -20.417204    77.111045    37.624465    41.211841    41.211841    82.423682 
   45400    904.67682    -25197.62   -26133.012   -238.49851    44.421447   -241.30559   -518.61138     41.21191     41.21191    82.423821 
   45500    889.13445   -25197.545   -26116.867    153.53133    321.95337    72.720341    65.920284    41.211469    41.211469    82.422937 
   45600    889.11211   -25197.459   -26116.758    251.14443    750.66643    48.128982   -45.362128    41.210877    41.210877    82.421754 
   45700    890.45949    -25197.39   -26118.082    256.83511     412.6348    266.54651    91.324032    41.210213    41.210213    82.420426 
   45800    908.16332   -25197.317   -26136.315   -201.66135   -601.92047    284.21384   -287.27742    41.209648    41.209648    82.419295 
   45900    900.78727   -25197.308   -26128.679    103.20978    576.21131   -260.07295   -6.5090098    41.208657    41.208657    82.417314 
   46000    893.22683     -25197.3   -26120.854    340.06938    762.91511    377.08565   -119.79263    41.208317    41.208317    82.416634 
   46100      907.784   -25197.245    -26135.85   -176.78851    94.933532   -52.300944    -572.9981    41.209104    41.209104    82.418208 
   46200    895.60055   -25197.206   -26123.214    91.774534    359.02276   -132.93475    49.235592    41.210094    41.210094    82.420187 
   46300    901.94565   -25197.188   -26129.756    -71.84344    15.999862   -71.939301   -159.59088    41.210828    41.210828    82.421656 
   46400    898.34875   -25197.199   -26126.048    19.175801   -235.15442    252.81152    39.870296    41.211008    41.211008    82.422016 
   46500    905.91496   -25197.256   -26133.929    -159.3099   -18.364967   -610.83936    151.27461    41.210632    41.210632    82.421265 
   46600    887.31139   -25197.345   -26114.782    337.58326    760.09828    481.98793   -229.33643    41.209922    41.209922    82.419843 
   46700    904.51944   -25197.336   -26132.565    -148.8583    363.39134   -445.82337   -364.14285    41.210082    41.210082    82.420164 
   46800    895.13755   -25197.308   -26122.837     45.44491    178.96174   -56.553812    13.926798      41.2102      41.2102      82.4204 
   46900    891.45315   -25197.276   -26118.996    138.48916     112.3438   -31.177899    334.30158    41.210031    41.210031    82.420062 
   47000    900.70498   -25197.265    -26128.55    59.528037   -73.743791    193.15377     59.17413    41.209778    41.209778    82.419556 
   47100    899.58159   -25197.292   -26127.416    43.062075   -66.225757   -109.00793    304.41992     41.20935     41.20935      82.4187 
   47200    898.81446    -25197.28   -26126.611    60.054728    132.40514   -175.11463    222.87367    41.209142    41.209142    82.418285 
   47300    901.89971   -25197.298   -26129.819    7.3147706    207.93994    145.61209   -331.60772    41.209028    41.209028    82.418055 
   47400    900.16798   -25197.343   -26128.074   -54.814923   -115.68136    201.95378    -250.7172    41.209173    41.209173    82.418346 
   47500    886.57418   -25197.362   -26114.037    385.03085     116.4755    137.01862    901.59843    41.209744    41.209744    82.419488 
   47600    903.17339   -25197.359   -26131.197   -97.966768    -518.7656    66.947245    157.91805    41.210688    41.210688    82.421376 
   47700    900.92549   -25197.366    -26128.88   -56.671535    -11.18457   -110.87317   -47.956867    41.211082    41.211082    82.422163 
   47800    899.90935   -25197.363   -26127.826    -71.61517   -212.85662   -305.30899     303.3201    41.211011    41.211011    82.422023 
   47900    902.60121   -25197.387   -26130.633    8.4772127   -36.025848    113.08668   -51.629192    41.210469    41.210469    82.420938 
   48000    898.97218   -25197.426    -26126.92    76.810565    -562.4269     129.4589    663.39969    41.209921    41.209921    82.419842 
   48100     895.0406   -25197.446   -26122.875    241.46437   -771.15018    120.61163    1374.9317    41.209514    41.209514    82.419027 
   48200    900.99068   -25197.485   -26129.066    66.566396   -113.76547    313.91264   -0.4479782    41.209337    41.209337    82.418675 
   48300    895.02683   -25197.527   -26122.942    211.13616    302.43415    226.59732    104.37702    41.209598    41.209598    82.419195 
   48400    901.20348   -25197.514   -26129.315    66.187441    216.63683    373.14529    -391.2198    41.210655    41.210655     82.42131 
   48500    896.90425   -25197.562   -26124.918   0.94152551   -152.45432     397.1546   -241.87571    41.211702    41.211702    82.423404 
   48600    905.98868   -25197.603   -26134.352   -205.27054   -574.44926    205.94688   -247.30926    41.212604    41.212604    82.425207 
   48700     903.0795   -25197.711   -26131.451   -103.91247     574.6513   -374.68147   -511.70723    41.212749    41.212749    82.425497 
   48800    895.06551   -25197.786   -26123.241    40.467341    203.70126    32.768807   -115.06804    41.212426    41.212426    82.424852 
   48900    898.44632   -25197.823   -26126.774     10.75963    52.363367    13.318398   -33.402875    41.211623    41.211623    82.423246 
   49000    898.74119   -25197.848   -26127.103    50.196471    224.46469   -263.24317    189.36789    41.210383    41.210383    82.420766 
   49100    901.57802   -25197.894   -26130.082      42.6232    320.29184    31.845972   -224.26821     41.20897     41.20897     82.41794 
   49200    905.92928   -25197.915   -26134.602    -106.9492    23.081348   -215.42397   -128.50498     41.20827     41.20827     82.41654 
   49300    912.95055   -25197.913    -26141.86   -227.81307    158.47489   -827.20237   -14.711745    41.208289    41.208289    82.416579 
   49400      896.577   -25197.958   -26124.976     158.7826      966.807   -689.34573    198.88654    41.208457    41.208457    82.416914 
   49500    903.10017   -25198.026   -26131.789   -56.187809   -88.203868   -55.816985   -24.542574    41.208747    41.208747    82.417494 
   49600    902.39999   -25198.072   -26131.111    5.6632008   -38.722283    10.651293    45.060593    41.209273    41.209273    82.418546 
   49700    903.55181    -25198.12   -26132.349   -56.095291   -85.872872    82.565499    -164.9785    41.209956    41.209956    82.419912 
   49800    894.50649   -25198.188   -26123.065     151.7047    255.01325    224.46355   -24.362702    41.210438    41.210438    82.420876 
   49900    902.31186   -25198.218   -26131.165    -12.56638    3.8671947   -142.45057    100.88423    41.211091    41.211091    82.422182 
   50000    897.68499   -25198.296   -26126.459   -55.119649   -313.04961   -175.83339    323.52405      41.2112      41.2112      82.4224 
Loop time of 1480.17 on 1 procs for 50000 steps with 8000 atoms

Pair  time (%) = 1339 (90.4626)
Neigh time (%) = 100.078 (6.76126)
Comm  time (%) = 8.65153 (0.584495)
Outpt time (%) = 0.630859 (0.0426206)
Other time (%) = 31.8088 (2.14899)

Nlocal:    8000 ave 8000 max 8000 min
Histogram: 1 0 0 0 0 0 0 0 0 0
Nghost:    9114 ave 9114 max 9114 min
Histogram: 1 0 0 0 0 0 0 0 0 0
Neighs:    297439 ave 297439 max 297439 min
Histogram: 1 0 0 0 0 0 0 0 0 0

Total # of neighbors = 297439
Ave neighs/atom = 37.1799
Neighbor list builds = 5000
Dangerous builds = 0
unfix		1

# Melt half the system
region  liquid block INF INF INF INF INF ${nzhalf}
region  liquid block INF INF INF INF INF 10
group	liquid_group region liquid
4028 atoms in group liquid_group

# Heat up one side to Tmelt to make sure it is melted
fix 2 liquid_group npt temp ${Tmelt} ${Tmelt} 1 z 0 0 10 drag 1.0
fix 2 liquid_group npt temp 2000 ${Tmelt} 1 z 0 0 10 drag 1.0
fix 2 liquid_group npt temp 2000 2000 1 z 0 0 10 drag 1.0
run		${eqsteps}
run		50000
Memory usage per processor = 5.95825 Mbytes
Step Temp TotEng PotEng Press Pxx Pyy Pzz Lx Ly Lz 
   50000    897.68499   -25198.296   -26126.459   -55.119649   -313.04961   -175.83339    323.52405      41.2112      41.2112      82.4224 
   50100    894.49762   -25195.928   -26120.795    118.14897   -386.52795   -130.94314    871.91799      41.2112      41.2112    82.422497 
   50200    895.57528   -25190.478    -26116.46    288.03882    172.27534    93.091834    598.74928      41.2112      41.2112    82.422895 
   50300    899.15121   -25185.176   -26114.855    338.28676    361.07464     124.4951    529.29053      41.2112      41.2112    82.423579 
   50400    907.59088   -25179.992   -26118.397    321.38322    116.91592    100.10015    747.13359      41.2112      41.2112    82.424566 
   50500    897.73412   -25174.174   -26102.387    653.60521    148.45178    733.13446    1079.2294      41.2112      41.2112    82.425911 
   50600     914.9062   -25167.989   -26113.958    492.53923    255.53929     578.5191    643.55929      41.2112      41.2112    82.427614 
   50700    917.27494   -25161.671   -26110.089    554.01338    488.35595    618.13578    555.54841      41.2112      41.2112    82.429669 
   50800    916.84092   -25155.262   -26103.232    723.76007    648.57821    687.53927    835.16273      41.2112      41.2112    82.432143 
   50900    919.79141    -25148.72   -26099.741    909.15569    1126.0443    742.78856    858.63421      41.2112      41.2112     82.43505 
   51000     920.1986   -25142.162   -26093.603    1022.8517    714.19148    1089.8182    1264.5456      41.2112      41.2112    82.438359 
   51100    927.26704   -25135.488   -26094.238    1066.9566    638.49775    802.60715     1759.765      41.2112      41.2112    82.442234 
   51200    923.89037   -25128.761   -26084.019     1308.939    1112.6312    1400.3365    1413.8492      41.2112      41.2112    82.446746 
   51300    930.75577   -25121.973    -26084.33    1350.8811    1367.1664    1275.8891    1409.5879      41.2112      41.2112    82.451847 
   51400    938.71797   -25115.152   -26085.741    1327.9493    1409.5576    1248.1519    1326.1385      41.2112      41.2112    82.457633 
   51500    936.14671   -25108.259    -26076.19    1513.0747    787.97809     1711.914    2039.3321      41.2112      41.2112    82.464121 
   51600    940.45584   -25101.395   -26073.782    1603.1854    1283.2828    1450.5125    2075.7608      41.2112      41.2112    82.471529 
   51700    944.75546   -25094.506   -26071.338    1608.9006    1298.7964     1411.066    2116.8395      41.2112      41.2112    82.479877 
   51800    948.87595   -25087.481   -26068.573    1642.8937    1376.3361    1218.0435    2334.3013      41.2112      41.2112    82.489148 
   51900    949.47295   -25080.505   -26062.215    1937.0054    1740.5565    1441.4491    2629.0104      41.2112      41.2112    82.499352 
   52000    950.11909   -25073.443    -26055.82    1881.0546     1673.712    1698.5926    2270.8593      41.2112      41.2112    82.510565 
   52100    949.78043   -25066.369   -26048.396    2008.1091    2174.1366    1123.8908    2726.2998      41.2112      41.2112    82.522745 
   52200    963.53251   -25059.269   -26055.516    1836.3422    1321.8977    1848.3091    2338.8199      41.2112      41.2112     82.53609 
   52300    953.55693   -25052.164   -26038.096    2211.8896    1841.0897    2076.3252    2718.2539      41.2112      41.2112     82.55053 
   52400    963.08847   -25045.021   -26040.808    2017.7059    2007.8373    1600.9203    2444.3602      41.2112      41.2112    82.565972 
   52500    963.31867    -25037.81   -26033.835    2139.3045    1613.2592    2053.5021    2751.1521      41.2112      41.2112    82.582329 
   52600    975.18573   -25030.591   -26038.886    1970.7633     1364.884    2184.4067    2362.9992      41.2112      41.2112    82.599661 
   52700    975.95429   -25023.359   -26032.448    1980.8925    1650.6445    2162.0388    2129.9942      41.2112      41.2112    82.617876 
   52800    975.89085   -25016.072   -26025.096     2041.369    1448.9183    2302.3507     2372.838      41.2112      41.2112    82.636882 
   52900    983.44248   -25008.763   -26025.595    1901.8983    1194.7824    2244.6256    2266.2868      41.2112      41.2112    82.656661 
   53000    975.70051   -25001.421   -26010.249    2270.6371    1921.2887    2310.0793    2580.5433      41.2112      41.2112     82.67721 
   53100    977.48246   -24994.043   -26004.712    2223.8151    1786.2947    2510.5288    2374.6218      41.2112      41.2112    82.698517 
   53200    995.49894    -24986.62   -26015.918    1725.6347    1419.3117    1938.8102    1818.7824      41.2112      41.2112    82.720488 
   53300    986.27008   -24979.204    -25998.96    2040.3388    1523.5403    2607.4845    1989.9917      41.2112      41.2112    82.742975 
   53400     992.8197   -24971.732    -25998.26    1955.2533    1605.1397    2190.6564    2069.9637      41.2112      41.2112    82.765975 
   53500    1005.7462    -24964.25   -26004.143    1733.1932    1149.6912     1712.002    2337.8866      41.2112      41.2112    82.789527 
   53600    996.93449   -24956.733   -25987.515    2068.9891    2053.8662    2104.5265    2048.5746      41.2112      41.2112    82.813636 
   53700     1000.779   -24949.207   -25983.965    1909.0826    1932.1812    2333.0115    1462.0552      41.2112      41.2112     82.83813 
   53800    1014.8747   -24941.562   -25990.893    1642.0281    1573.6201    2001.2715    1351.1928      41.2112      41.2112    82.862839 
   53900    997.27108   -24933.979   -25965.109    2128.8874    1940.4128    2533.2848    1912.9647      41.2112      41.2112    82.887755 
   54000    1013.0598   -24926.369   -25973.824    1731.8989    1360.1647    1973.7144    1861.8177      41.2112      41.2112    82.912982 
   54100    1023.0568   -24918.697   -25976.488    1527.5842    1660.8217    1338.9886    1582.9422      41.2112      41.2112    82.938502 
   54200    1018.4281    -24910.99   -25963.996    1670.1017    1930.4713    2061.5777    1018.2559      41.2112      41.2112    82.964285 
   54300    1018.2532   -24903.279   -25956.104    1735.1974    2064.4822    1907.1563    1233.9538      41.2112      41.2112    82.990017 
   54400    1020.9811   -24895.541   -25951.186    1679.5718    1340.4737    2218.0936    1480.1481      41.2112      41.2112    83.015646 
   54500    1035.5812   -24887.769   -25958.511    1264.4984    881.00488    1456.7593     1455.731      41.2112      41.2112    83.041349 
   54600      1026.99    -24879.98   -25941.838    1543.3455    1323.4653    2145.8014    1160.7699      41.2112      41.2112    83.067081 
   54700    1038.2529   -24872.161   -25945.665    1374.8595    1380.9744    1908.5326    835.07136      41.2112      41.2112    83.092651 
[...]
  336300    915.41199   -25145.052   -26091.544   -180.89039   -496.05812   -344.44867    297.83563    41.233848    41.233848    82.506533 
  336400    923.42736   -25145.053   -26099.832   -492.27648   -417.11418    -321.1751   -738.54016      41.2334      41.2334    82.513788 
  336500    931.48901   -25145.057   -26108.172   -394.59056   -236.37838     -972.853    25.459713    41.232807    41.232807    82.485339 
  336600    920.42194   -25145.057   -26096.729    53.157006   -72.116109    118.71595    112.87118    41.232118    41.232118    82.459539 
  336700    916.70449   -25145.053   -26092.881    331.07823    535.42332   -35.215458    493.02682    41.231546    41.231546     82.44218 
  336800    921.69224   -25145.056   -26098.042    112.04504    353.41084   -407.47461    390.19888    41.231155    41.231155    82.450497 
  336900     934.0016   -25145.062   -26110.775   -418.86546   -580.10045   -22.899682   -653.59625    41.230871    41.230871    82.483867 
  337000    916.77301   -25145.057   -26092.956    140.44613    301.86306    179.57239   -60.097043    41.230575    41.230575      82.4856 
  337100    917.56616   -25145.055   -26093.775    185.81768    1078.6023   -89.952025   -431.19719    41.230336    41.230336    82.470912 
  337200      921.731   -25145.062   -26098.088    362.66453    464.84516    7.8394558    615.30897     41.23027     41.23027    82.440022 
  337300    920.98018   -25145.058   -26097.308     422.7956    770.41525    21.755137    476.21642    41.230365    41.230365    82.441874 
  337400    929.37327   -25145.069   -26105.996    -178.3768     125.9485    -612.2829   -48.795996    41.230628    41.230628    82.477589 
  337500    925.43391   -25145.063   -26101.917   -161.11934   -134.92316    103.30167   -451.73655    41.230884    41.230884    82.502758 
  337600    923.32199   -25145.072   -26099.742   -15.500252    720.48808   -568.61123   -198.37761    41.231098    41.231098    82.480209 
  337700    914.95272   -25145.059   -26091.076    577.24286     89.30889    682.50439     959.9153    41.231329    41.231329    82.440463 
  337800    920.90862   -25145.066   -26097.241    306.68552    346.43829    260.48586     313.1324    41.231674    41.231674    82.445308 
  337900    922.69677   -25145.068   -26099.092   -15.133667    36.360358    91.431639     -173.193    41.232139    41.232139    82.470148 
  338000    910.93658   -25145.063   -26086.927    256.50451    195.91744    88.622364    484.97373    41.232619    41.232619    82.469008 
  338100    924.51576   -25145.068   -26100.973   -10.196514    47.929429    240.67713    -319.1961    41.233035    41.233035    82.474991 
  338200    927.88568   -25145.071    -26104.46   -157.47808    22.012166   -231.85689   -262.58952     41.23337     41.23337    82.479562 
  338300    929.21292   -25145.074   -26105.836   -456.74337   -452.99424   -434.96366   -482.27222    41.233654    41.233654    82.501222 
  338400     918.1546   -25145.069   -26094.397   -276.66282   -1173.1411   -161.85442    505.00706    41.233703    41.233703     82.51988 
  338500    928.72768   -25145.071   -26105.331   -842.81122   -1220.8204   -549.89072   -757.72257    41.233412    41.233412    82.553522 
  338600    916.18263   -25145.072   -26092.361   -418.46881   -322.51226   -641.14782   -291.74635    41.232717    41.232717    82.540696 
  338700    917.03451   -25145.077   -26093.247   -205.87344   -177.43053   -864.50204    424.31225    41.231698    41.231698    82.507684 
  338800    913.07654   -25145.075   -26089.152    187.00438    236.46741    135.28845    189.25726    41.230549    41.230549    82.497367 
  338900    919.32389   -25145.077   -26095.614    4.5376934    175.88788   -183.63029    21.355496    41.229501    41.229501    82.495278 
  339000    914.09751   -25145.077    -26090.21     200.9425    628.90414    64.244203   -90.320853     41.22854     41.22854    82.493556 
  339100    914.01434   -25145.073    -26090.12    321.20114    768.20146   -143.12873    338.53069    41.227748    41.227748    82.476904 
  339200     907.4731   -25145.073   -26083.357    478.34695    1206.4133   -121.38892     350.0165    41.227168    41.227168    82.474215 
  339300    918.97213   -25145.078   -26095.251    257.08942   -118.09858    549.29856    340.06828    41.226807    41.226807    82.467834 
  339400    913.50843   -25145.078   -26089.602    496.60867    642.82469    461.56232      385.439    41.226601    41.226601    82.461157 
  339500    925.28287    -25145.08   -26101.778    49.105373     234.7747   -91.165651    3.7070724    41.226599    41.226599    82.478528 
  339600    924.09256   -25145.075   -26100.542   -23.012965   -288.19039    217.54049    1.6110049    41.226656    41.226656    82.497968 
  339700    924.63803    -25145.08   -26101.112   -171.66714     81.76674   -260.31989   -336.44828    41.226678    41.226678    82.504508 
  339800    924.80044   -25145.085   -26101.284   -40.806544    129.08953   -228.59241   -22.916755    41.226664    41.226664    82.487617 
  339900    913.62113   -25145.082   -26089.722    259.25813    4.4323014    154.37428     618.9678    41.226662    41.226662    82.481321 
  340000    927.63661   -25145.086   -26104.217   -257.46515   -249.32438    -575.7917    52.720633     41.22668     41.22668    82.510616 
  340100    915.54766   -25145.082   -26091.714   -161.82425   -60.799245   -173.12405   -251.54947    41.226557    41.226557    82.527266 
  340200    922.03592   -25145.097   -26098.437    51.920704   -117.45815    180.52303     92.69723    41.226402    41.226402     82.48979 
  340300    924.23666   -25145.093   -26100.709      281.755    100.71499    516.74136    227.80866    41.226256    41.226256    82.451573 
  340400    923.88854   -25145.089   -26100.346    263.69833    313.45439    322.04351    155.59708    41.226345    41.226345    82.457295 
  340500    925.22757   -25145.095   -26101.736   -67.512878   -280.05706    389.47516   -311.95673    41.226631    41.226631    82.485484 
  340600    916.87183   -25145.085   -26093.086    189.97232    140.09535    303.06106    126.76057    41.226992    41.226992    82.490251 
  340700    920.39378   -25145.089   -26096.732    87.891578    275.40807    25.002128   -36.735465    41.227359    41.227359    82.472661 
  340800    924.61103   -25145.092   -26101.095    287.45266    28.063688    195.69937    638.59492    41.227774    41.227774    82.445052 
  340900    914.28683   -25145.088   -26090.416    377.45134    110.82158    866.25339    155.27903    41.228269    41.228269    82.454947 
  341000    910.35155   -25145.094   -26086.354    346.68568    47.522639    435.16386    557.37054    41.228852    41.228852    82.474026 
  341100     922.0335   -25145.093   -26098.431   -218.87785   -419.37404       -104.4    -132.8595    41.229402    41.229402    82.500623 
  341200    924.84839   -25145.093   -26101.342   -344.60757   -140.50536   -615.24486   -278.07248    41.229752    41.229752    82.513317 
  341300    918.66504   -25145.095    -26094.95   -106.89701   -422.28544   -384.39503    485.98945    41.229842    41.229842    82.506331 
  341400    924.84692   -25145.094   -26101.342   -336.32351   -507.67683   -287.11084   -214.18285    41.229724    41.229724    82.514196 
  341500    931.32368   -25145.099   -26108.043   -511.90107   -296.64932   -377.10417   -861.94972    41.229362    41.229362    82.528568 
  341600    922.17508     -25145.1   -26098.585   -273.99239   -304.40987   -532.69796    15.130643     41.22887     41.22887    82.511983 
  341700    925.11346   -25145.098    -26101.62   -256.83635   -502.78533   -326.99562    59.271877    41.228308    41.228308    82.510946 
  341800    918.48894   -25145.097    -26094.77    -229.5918    -23.48017   -939.59361    274.29837    41.227646    41.227646    82.525146 
  341900    921.38731   -25145.105   -26097.775   -302.17976    9.4215391   -310.23752    -605.7233    41.226907    41.226907    82.521899 
  342000    925.24926    -25145.11   -26101.773   -3.7816104   -255.68621    206.35798    37.983401    41.226228    41.226228    82.476383 
  342100    922.15214   -25145.106   -26098.566    323.62698    739.24448   -323.56301    555.19947    41.225676    41.225676    82.453997 
  342200    924.40779   -25145.111   -26100.904   -4.8040806   -305.34706    3.1647104    287.77011    41.225326    41.225326    82.484723 
  342300    917.09687   -25145.113   -26093.347   -73.590636    213.64513    -644.6569    210.23986     41.22506     41.22506    82.522472 
  342400    929.65159   -25145.113   -26106.328   -513.43666   -109.85889   -323.76156   -1106.6895    41.224771    41.224771    82.534361 
  342500     928.4598   -25145.125   -26105.107    10.133074    94.710727   -386.87063    322.55912    41.224504    41.224504    82.477997 
  342600    926.02347   -25145.112   -26102.576    255.28376    298.53519     234.8134     232.5027    41.224328    41.224328    82.459274 
  342700     915.8295   -25145.112   -26092.036    355.23629    7.1075345    136.47745    922.12389    41.224338    41.224338    82.472065 
  342800    928.48691   -25145.133   -26105.144   -283.03156   -377.56894   -39.517004   -432.00872     41.22437     41.22437    82.525663 
  342900    912.92816   -25145.117   -26089.041   -103.95085   -540.02325     235.5869   -7.4162115     41.22435     41.22435    82.549269 
  343000     917.7096   -25145.125   -26093.993   -39.744407   -26.363866   -13.499868   -79.369487     41.22427     41.22427    82.528901 
  343100    923.16515   -25145.133   -26099.641    154.44471    228.75807   -184.60809    419.18416    41.224149    41.224149    82.479691 
  343200    928.74823   -25145.133   -26105.414    157.20557   -59.065909     103.1775    427.50511    41.224081    41.224081    82.477315 
  343300    920.80113   -25145.133   -26097.197   -109.57824    410.83501   -881.94976    142.38003    41.224055    41.224055    82.524888 
  343400    921.38304   -25145.133   -26097.799   -530.35725   -278.31632     -773.899   -538.85642    41.223885    41.223885    82.568457 
  343500    913.98441   -25145.128   -26090.144   -270.41141    -38.09515   -187.86756   -585.27152    41.223466    41.223466     82.57285 
  343600    921.61173   -25145.155   -26098.057   -63.869887    61.791571   -273.09755     19.69632    41.222877    41.222877    82.524424 
  343700    920.47972   -25145.139   -26096.871    370.88353     301.7618    300.11954    510.76925    41.222367    41.222367    82.472569 
  343800    933.97468    -25145.14   -26110.825    133.10607    76.268888   -113.51732    436.56663    41.222068    41.222068    82.463158 
  343900    931.07558   -25145.148   -26107.835     -28.4943    24.720779    281.99485   -392.19853     41.22196     41.22196    82.498652 
  344000    927.72424   -25145.158    -26104.38   -431.48659   -433.63703   -327.98454    -532.8382    41.221988    41.221988    82.547004 
  344100    929.77453   -25145.146   -26106.488   -551.90152   -653.63265   -329.10293   -672.96898    41.221868    41.221868     82.57209 
  344200    921.03718   -25145.165   -26097.473   -80.205201   -139.77087    -239.3665    138.52177    41.221594    41.221594     82.53014 
  344300    914.08367   -25145.146   -26090.264    441.62174    642.70964    193.32474    488.83084    41.221304    41.221304    82.494473 
  344400    924.53546   -25145.149   -26101.074    223.62083   -112.33711    514.29245    268.90714    41.221209    41.221209    82.488296 
  344500    922.81272   -25145.153   -26099.297    172.62009     370.1185   -151.28854    299.03031    41.221257    41.221257    82.499899 
  344600     918.8446   -25145.151   -26095.192    -74.28171   -357.71864   -6.5482776    141.42179     41.22135     41.22135    82.526541 
  344700    927.83381   -25145.152   -26104.488   -484.09033    -524.0164   -330.77712   -597.47746    41.221339    41.221339    82.546168 
  344800    921.65633   -25145.151   -26098.099   -239.37731   -502.34637    147.41283    -363.1984    41.221147    41.221147    82.536672 
  344900    928.21866    -25145.16   -26104.893   -91.253619   -381.33742    21.418843    86.157716    41.220901    41.220901    82.505119 
  345000    929.33335   -25145.156   -26106.042    78.605438   -12.336613    544.54223   -296.38931    41.220703    41.220703     82.49063 
  345100    920.20817   -25145.153   -26096.604    377.91197    402.83767    698.90368    31.994558    41.220743    41.220743    82.479909 
  345200    930.12768    -25145.16   -26106.867   -5.4866515   -210.58736    262.11847    -67.99106    41.221008    41.221008    82.493911 
  345300     924.3683   -25145.156   -26100.908   -41.234187    -18.42332    251.68867   -356.96791    41.221325    41.221325    82.524274 
  345400    925.81689   -25145.155   -26102.405   -169.78016   -84.693967   -166.37227   -258.27425    41.221632    41.221632    82.526461 
  345500    918.49152   -25145.156   -26094.832    134.43029    87.307227    324.80458   -8.8209278    41.221881    41.221881    82.511083 
  345600    927.74868   -25145.162   -26104.409    35.341689     -88.2463    169.13741    25.133958    41.222166    41.222166    82.490403 
  345700    919.58449   -25145.157   -26095.963    365.05959    237.10167    393.40662    464.67048    41.222541    41.222541    82.473152 
  345800    909.69286   -25145.164   -26085.743    431.19791    183.67376    627.92326    481.99671    41.223023    41.223023    82.485645 
  345900     920.3038   -25145.169   -26096.718   -237.78204   -187.82528   -111.93067   -413.59017    41.223527    41.223527    82.527714 
  346000    921.60519   -25145.159   -26098.054    -465.8995   -574.31327    -384.1228   -439.26245    41.223848    41.223848    82.551455 
  346100    918.99955   -25145.162   -26095.363   -241.11515   -261.62343   -258.77297   -202.94905    41.223904    41.223904    82.542068 
  346200    913.94245   -25145.187   -26090.159    286.00193   -46.815711    334.57007    570.25144    41.223827    41.223827    82.485365 
  346300    928.32442    -25145.18   -26105.023    435.72038    330.19652    779.32467    197.63996    41.223853    41.223853    82.431819 
  346400    925.07765   -25145.174    -26101.66    630.97947    536.79756    896.71134    459.42953    41.224169    41.224169     82.42228 
  346500    921.49161   -25145.187   -26097.965    354.76806    389.96093    536.79627    137.54699    41.224797    41.224797    82.464499 
  346600    913.55665   -25145.186    -26089.76    61.448906     300.1326   -2.1893668   -113.59652    41.225538    41.225538    82.515687 
  346700    906.85592   -25145.175    -26082.82    80.862907    291.09587   -92.873309    44.366165    41.226188    41.226188    82.548652 
  346800    925.44155   -25145.179   -26102.041   -445.69451   -438.19352   -368.31372   -530.57631    41.226613    41.226613    82.546007 
  346900    925.74609    -25145.19   -26102.367   -124.94707    361.64207    -250.7696   -485.71367    41.226774    41.226774    82.506323 
  347000    924.87032   -25145.209   -26101.481    297.49063    463.34778    40.127706    388.99639    41.226965    41.226965    82.441149 
  347100    917.29755   -25145.195   -26093.636    899.13371     904.4339    892.79455     900.1727    41.227317    41.227317    82.401558 
  347200    925.07135   -25145.206   -26101.685     387.3036    327.22279    744.05306    90.634965    41.228046    41.228046    82.424191 
  347300    923.16977   -25145.227    -26099.74   -98.598613     566.6951   -824.24733     -38.2436    41.228969    41.228969    82.493614 
  347400      923.039   -25145.215   -26099.593   -733.00367   -1203.1535   -482.32388   -513.53367     41.22971     41.22971    82.554611 
  347500    914.36471    -25145.21   -26090.619    -430.4148    19.970636    -737.2775   -573.93754    41.229995    41.229995    82.558683 
  347600    925.69747   -25145.264   -26102.391    -200.3446    223.27069    -15.14208   -809.16242    41.229968    41.229968    82.492347 
  347700    912.67405   -25145.248   -26088.909    937.67892    961.60449    961.93074    889.50153    41.229994    41.229994     82.39412 
  347800    927.44245   -25145.233   -26104.164    738.81752    1118.8658    777.55557    320.03113    41.230378    41.230378    82.365541 
  347900    923.89686   -25145.274   -26100.539    502.30629    706.40725    123.89066    676.62096    41.231156    41.231156    82.407091 
  348000    917.92198   -25145.292    -26094.38   -171.43186    370.01003   -606.62098   -277.68464    41.232083    41.232083    82.503533 
  348100    929.44946   -25145.261   -26106.267   -919.62219   -1165.3309   -777.64435   -815.89128    41.232797    41.232797    82.564242 
  348200    914.43807   -25145.303   -26090.788   -255.93756    340.59886   -444.45654   -663.95499    41.233062    41.233062    82.523552 
  348300    914.21543   -25145.296   -26090.551    520.67781   -180.04284    863.47638    878.59989    41.233202    41.233202    82.424973 
  348400    925.77317   -25145.278   -26102.483    546.84364    544.27605    12.937736    1083.3171    41.233433    41.233433    82.393733 
  348500     921.2351   -25145.312   -26097.824    240.77162   -267.43596    877.98893    111.76189    41.233827    41.233827    82.444305 
  348600    931.95674   -25145.303   -26108.902   -636.83293   -652.28993   -327.90877    -930.3001    41.234254    41.234254    82.512498 
  348700    920.09559   -25145.293   -26096.627   -486.34448   -917.24596   -162.79957   -378.98792    41.234404    41.234404    82.523783 
  348800    914.73405   -25145.302   -26091.093   -36.950688     44.89417   -436.78976    281.04353    41.234307    41.234307    82.484924 
  348900    934.47296   -25145.308   -26111.508   -293.95972   -361.31387    175.75697   -696.32227    41.234115    41.234115    82.454285 
  349000    926.45552   -25145.301   -26103.211    322.30267    189.30237    568.98572    208.61992    41.233982    41.233982    82.414884 
  349100    920.57377   -25145.299   -26097.128    417.17909    648.12532    497.85481    105.55714    41.234049    41.234049    82.416682 
  349200    913.44719   -25145.321   -26089.781    196.30568    15.185645    535.80831    37.923087    41.234288    41.234288    82.453838 
  349300    926.63896   -25145.319   -26103.419   -597.50806   -420.13869    -808.9325   -563.45298    41.234562    41.234562    82.509731 
  349400    930.20076   -25145.311   -26107.094   -876.23963   -895.18353   -860.83757   -872.69778    41.234556    41.234556    82.533784 
  349500    921.81519   -25145.327   -26098.439   -321.57483   -379.98176   -158.60135   -426.14136    41.234228    41.234228    82.504418 
  349600    932.71817   -25145.329   -26109.715   -158.89856      44.0689   -5.6639461   -515.10062    41.233775    41.233775    82.450601 
  349700    920.90576   -25145.316   -26097.488    450.06251    919.44292    243.50901    187.23561    41.233383    41.233383    82.419523 
  349800    915.36548   -25145.324   -26091.768     317.1458    831.47003   -26.505432     146.4728    41.233187    41.233187    82.446464 
  349900    921.55419    -25145.32   -26098.163    -43.53861   -4.5534967   -418.89895    292.83662    41.233111    41.233111    82.478862 
  350000    912.75937    -25145.32   -26089.069   -67.869374     204.0892   -321.49007   -86.207248    41.232953    41.232953    82.506497 
Loop time of 5863.95 on 1 procs for 200000 steps with 8000 atoms

Pair  time (%) = 5313.48 (90.6126)
Neigh time (%) = 395.689 (6.74782)
Comm  time (%) = 32.0478 (0.546522)
Outpt time (%) = 2.48826 (0.0424331)
Other time (%) = 120.245 (2.05058)

Nlocal:    8000 ave 8000 max 8000 min
Histogram: 1 0 0 0 0 0 0 0 0 0
Nghost:    8026 ave 8026 max 8026 min
Histogram: 1 0 0 0 0 0 0 0 0 0
Neighs:    296197 ave 296197 max 296197 min
Histogram: 1 0 0 0 0 0 0 0 0 0

Total # of neighbors = 296197
Ave neighs/atom = 37.0246
Neighbor list builds = 20000
Dangerous builds = 0
unfix		4
