ITEM: TIMESTEP
0
ITEM: NUMBER OF ATOMS
1280
ITEM: BOX BOUNDS pp pp pp
0 16.2
0 16.2
0 81
ITEM: ATOMS id type xs ys zs
1 1 0 0 0
2 1 0.125 0.125 0
3 1 0.125 0 0.025
4 1 0 0.125 0.025
5 1 0.25 0 0
6 1 0.375 0.125 0
7 1 0.375 0 0.025
8 1 0.25 0.125 0.025
9 1 0.5 0 0
10 1 0.625 0.125 0
11 1 0.625 0 0.025
12 1 0.5 0.125 0.025
13 1 0.75 0 0
14 1 0.875 0.125 0
15 1 0.875 0 0.025
16 1 0.75 0.125 0.025
17 1 0 0.25 0
18 1 0.125 0.375 0
19 1 0.125 0.25 0.025
20 1 0 0.375 0.025
21 1 0.25 0.25 0
22 1 0.375 0.375 0
23 1 0.375 0.25 0.025
24 1 0.25 0.375 0.025
25 1 0.5 0.25 0
26 1 0.625 0.375 0
27 1 0.625 0.25 0.025
28 1 0.5 0.375 0.025
29 1 0.75 0.25 0
30 1 0.875 0.375 0
31 1 0.875 0.25 0.025
32 1 0.75 0.375 0.025
33 1 0 0.5 0
34 1 0.125 0.625 0
35 1 0.125 0.5 0.025
36 1 0 0.625 0.025
37 1 0.25 0.5 0
38 1 0.375 0.625 0
39 1 0.375 0.5 0.025
40 1 0.25 0.625 0.025
41 1 0.5 0.5 0
42 1 0.625 0.625 0
43 1 0.625 0.5 0.025
44 1 0.5 0.625 0.025
45 1 0.75 0.5 0
46 1 0.875 0.625 0
47 1 0.875 0.5 0.025
48 1 0.75 0.625 0.025
49 1 0 0.75 0
50 1 0.125 0.875 0
51 1 0.125 0.75 0.025
52 1 0 0.875 0.025
53 1 0.25 0.75 0
54 1 0.375 0.875 0
55 1 0.375 0.75 0.025
56 1 0.25 0.875 0.025
57 1 0.5 0.75 0
58 1 0.625 0.875 0
59 1 0.625 0.75 0.025
60 1 0.5 0.875 0.025
61 1 0.75 0.75 0
62 1 0.875 0.875 0
63 1 0.875 0.75 0.025
64 1 0.75 0.875 0.025
65 1 0 0 0.05
66 1 0.125 0.125 0.05
67 1 0.125 0 0.075
68 1 0 0.125 0.075
69 1 0.25 0 0.05
70 1 0.375 0.125 0.05
71 1 0.375 0 0.075
72 1 0.25 0.125 0.075
73 1 0.5 0 0.05
74 1 0.625 0.125 0.05
75 1 0.625 0 0.075
76 1 0.5 0.125 0.075
77 1 0.75 0 0.05
78 1 0.875 0.125 0.05
79 1 0.875 0 0.075
80 1 0.75 0.125 0.075
81 1 0 0.25 0.05
82 1 0.125 0.375 0.05
83 1 0.125 0.25 0.075
84 1 0 0.375 0.075
85 1 0.25 0.25 0.05
86 1 0.375 0.375 0.05
87 1 0.375 0.25 0.075
88 1 0.25 0.375 0.075
89 1 0.5 0.25 0.05
90 1 0.625 0.375 0.05
91 1 0.625 0.25 0.075
92 1 0.5 0.375 0.075
93 1 0.75 0.25 0.05
94 1 0.875 0.375 0.05
95 1 0.875 0.25 0.075
96 1 0.75 0.375 0.075
97 1 0 0.5 0.05
98 1 0.125 0.625 0.05
99 1 0.125 0.5 0.075
100 1 0 0.625 0.075
101 1 0.25 0.5 0.05
102 1 0.375 0.625 0.05
103 1 0.375 0.5 0.075
104 1 0.25 0.625 0.075
105 1 0.5 0.5 0.05
106 1 0.625 0.625 0.05
107 1 0.625 0.5 0.075
108 1 0.5 0.625 0.075
109 1 0.75 0.5 0.05
110 1 0.875 0.625 0.05
111 1 0.875 0.5 0.075
112 1 0.75 0.625 0.075
113 1 0 0.75 0.05
114 1 0.125 0.875 0.05
115 1 0.125 0.75 0.075
116 1 0 0.875 0.075
117 1 0.25 0.75 0.05
118 1 0.375 0.875 0.05
119 1 0.375 0.75 0.075
120 1 0.25 0.875 0.075
121 1 0.5 0.75 0.05
122 1 0.625 0.875 0.05
123 1 0.625 0.75 0.075
124 1 0.5 0.875 0.075
125 1 0.75 0.75 0.05
126 1 0.875 0.875 0.05
127 1 0.875 0.75 0.075
128 1 0.75 0.875 0.075
129 1 0 0 0.1
130 1 0.125 0.125 0.1
131 1 0.125 0 0.125
132 1 0 0.125 0.125
133 1 0.25 0 0.1
134 1 0.375 0.125 0.1
135 1 0.375 0 0.125
136 1 0.25 0.125 0.125
137 1 0.5 0 0.1
138 1 0.625 0.125 0.1
139 1 0.625 0 0.125
140 1 0.5 0.125 0.125
141 1 0.75 0 0.1
142 1 0.875 0.125 0.1
143 1 0.875 0 0.125
144 1 0.75 0.125 0.125
145 1 0 0.25 0.1
146 1 0.125 0.375 0.1
147 1 0.125 0.25 0.125
148 1 0 0.375 0.125
149 1 0.25 0.25 0.1
150 1 0.375 0.375 0.1
151 1 0.375 0.25 0.125
152 1 0.25 0.375 0.125
153 1 0.5 0.25 0.1
154 1 0.625 0.375 0.1
155 1 0.625 0.25 0.125
156 1 0.5 0.375 0.125
157 1 0.75 0.25 0.1
158 1 0.875 0.375 0.1
159 1 0.875 0.25 0.125
160 1 0.75 0.375 0.125
161 1 0 0.5 0.1
162 1 0.125 0.625 0.1
163 1 0.125 0.5 0.125
164 1 0 0.625 0.125
165 1 0.25 0.5 0.1
166 1 0.375 0.625 0.1
167 1 0.375 0.5 0.125
168 1 0.25 0.625 0.125
169 1 0.5 0.5 0.1
170 1 0.625 0.625 0.1
171 1 0.625 0.5 0.125
172 1 0.5 0.625 0.125
173 1 0.75 0.5 0.1
174 1 0.875 0.625 0.1
175 1 0.875 0.5 0.125
176 1 0.75 0.625 0.125
177 1 0 0.75 0.1
178 1 0.125 0.875 0.1
179 1 0.125 0.75 0.125
180 1 0 0.875 0.125
181 1 0.25 0.75 0.1
182 1 0.375 0.875 0.1
183 1 0.375 0.75 0.125
184 1 0.25 0.875 0.125
185 1 0.5 0.75 0.1
186 1 0.625 0.875 0.1
187 1 0.625 0.75 0.125
188 1 0.5 0.875 0.125
189 1 0.75 0.75 0.1
190 1 0.875 0.875 0.1
191 1 0.875 0.75 0.125
192 1 0.75 0.875 0.125
193 1 0 0 0.15
194 1 0.125 0.125 0.15
197 1 0.25 0 0.15
198 1 0.375 0.125 0.15
201 1 0.5 0 0.15
202 1 0.625 0.125 0.15
205 1 0.75 0 0.15
206 1 0.875 0.125 0.15
209 1 0 0.25 0.15
210 1 0.125 0.375 0.15
213 1 0.25 0.25 0.15
214 1 0.375 0.375 0.15
217 1 0.5 0.25 0.15
218 1 0.625 0.375 0.15
221 1 0.75 0.25 0.15
222 1 0.875 0.375 0.15
225 1 0 0.5 0.15
226 1 0.125 0.625 0.15
229 1 0.25 0.5 0.15
230 1 0.375 0.625 0.15
233 1 0.5 0.5 0.15
234 1 0.625 0.625 0.15
237 1 0.75 0.5 0.15
238 1 0.875 0.625 0.15
241 1 0 0.75 0.15
242 1 0.125 0.875 0.15
245 1 0.25 0.75 0.15
246 1 0.375 0.875 0.15
249 1 0.5 0.75 0.15
250 1 0.625 0.875 0.15
253 1 0.75 0.75 0.15
254 1 0.875 0.875 0.15
195 1 0.125 0 0.175
196 1 0 0.125 0.175
257 1 0 0 0.2
258 1 0.125 0.125 0.2
199 1 0.375 0 0.175
200 1 0.25 0.125 0.175
261 1 0.25 0 0.2
262 1 0.375 0.125 0.2
203 1 0.625 0 0.175
204 1 0.5 0.125 0.175
265 1 0.5 0 0.2
266 1 0.625 0.125 0.2
207 1 0.875 0 0.175
208 1 0.75 0.125 0.175
269 1 0.75 0 0.2
270 1 0.875 0.125 0.2
211 1 0.125 0.25 0.175
212 1 0 0.375 0.175
273 1 0 0.25 0.2
274 1 0.125 0.375 0.2
215 1 0.375 0.25 0.175
216 1 0.25 0.375 0.175
277 1 0.25 0.25 0.2
278 1 0.375 0.375 0.2
219 1 0.625 0.25 0.175
220 1 0.5 0.375 0.175
281 1 0.5 0.25 0.2
282 1 0.625 0.375 0.2
223 1 0.875 0.25 0.175
224 1 0.75 0.375 0.175
285 1 0.75 0.25 0.2
286 1 0.875 0.375 0.2
227 1 0.125 0.5 0.175
228 1 0 0.625 0.175
289 1 0 0.5 0.2
290 1 0.125 0.625 0.2
231 1 0.375 0.5 0.175
232 1 0.25 0.625 0.175
293 1 0.25 0.5 0.2
294 1 0.375 0.625 0.2
235 1 0.625 0.5 0.175
236 1 0.5 0.625 0.175
297 1 0.5 0.5 0.2
298 1 0.625 0.625 0.2
239 1 0.875 0.5 0.175
240 1 0.75 0.625 0.175
301 1 0.75 0.5 0.2
302 1 0.875 0.625 0.2
243 1 0.125 0.75 0.175
244 1 0 0.875 0.175
305 1 0 0.75 0.2
306 1 0.125 0.875 0.2
247 1 0.375 0.75 0.175
248 1 0.25 0.875 0.175
309 1 0.25 0.75 0.2
310 1 0.375 0.875 0.2
251 1 0.625 0.75 0.175
252 1 0.5 0.875 0.175
313 1 0.5 0.75 0.2
314 1 0.625 0.875 0.2
255 1 0.875 0.75 0.175
256 1 0.75 0.875 0.175
317 1 0.75 0.75 0.2
318 1 0.875 0.875 0.2
259 1 0.125 0 0.225
260 1 0 0.125 0.225
321 1 0 0 0.25
322 1 0.125 0.125 0.25
263 1 0.375 0 0.225
264 1 0.25 0.125 0.225
325 1 0.25 0 0.25
326 1 0.375 0.125 0.25
267 1 0.625 0 0.225
268 1 0.5 0.125 0.225
329 1 0.5 0 0.25
330 1 0.625 0.125 0.25
271 1 0.875 0 0.225
272 1 0.75 0.125 0.225
333 1 0.75 0 0.25
334 1 0.875 0.125 0.25
275 1 0.125 0.25 0.225
276 1 0 0.375 0.225
337 1 0 0.25 0.25
338 1 0.125 0.375 0.25
279 1 0.375 0.25 0.225
280 1 0.25 0.375 0.225
341 1 0.25 0.25 0.25
342 1 0.375 0.375 0.25
283 1 0.625 0.25 0.225
284 1 0.5 0.375 0.225
345 1 0.5 0.25 0.25
346 1 0.625 0.375 0.25
287 1 0.875 0.25 0.225
288 1 0.75 0.375 0.225
349 1 0.75 0.25 0.25
350 1 0.875 0.375 0.25
291 1 0.125 0.5 0.225
292 1 0 0.625 0.225
353 1 0 0.5 0.25
354 1 0.125 0.625 0.25
295 1 0.375 0.5 0.225
296 1 0.25 0.625 0.225
357 1 0.25 0.5 0.25
358 1 0.375 0.625 0.25
299 1 0.625 0.5 0.225
300 1 0.5 0.625 0.225
361 1 0.5 0.5 0.25
362 1 0.625 0.625 0.25
303 1 0.875 0.5 0.225
304 1 0.75 0.625 0.225
365 1 0.75 0.5 0.25
366 1 0.875 0.625 0.25
307 1 0.125 0.75 0.225
308 1 0 0.875 0.225
369 1 0 0.75 0.25
370 1 0.125 0.875 0.25
311 1 0.375 0.75 0.225
312 1 0.25 0.875 0.225
373 1 0.25 0.75 0.25
374 1 0.375 0.875 0.25
315 1 0.625 0.75 0.225
316 1 0.5 0.875 0.225
377 1 0.5 0.75 0.25
378 1 0.625 0.875 0.25
319 1 0.875 0.75 0.225
320 1 0.75 0.875 0.225
381 1 0.75 0.75 0.25
382 1 0.875 0.875 0.25
323 1 0.125 0 0.275
324 1 0 0.125 0.275
385 1 0 0 0.3
386 1 0.125 0.125 0.3
327 1 0.375 0 0.275
328 1 0.25 0.125 0.275
389 1 0.25 0 0.3
390 1 0.375 0.125 0.3
331 1 0.625 0 0.275
332 1 0.5 0.125 0.275
393 1 0.5 0 0.3
394 1 0.625 0.125 0.3
335 1 0.875 0 0.275
336 1 0.75 0.125 0.275
397 1 0.75 0 0.3
398 1 0.875 0.125 0.3
339 1 0.125 0.25 0.275
340 1 0 0.375 0.275
401 1 0 0.25 0.3
402 1 0.125 0.375 0.3
343 1 0.375 0.25 0.275
344 1 0.25 0.375 0.275
405 1 0.25 0.25 0.3
406 1 0.375 0.375 0.3
347 1 0.625 0.25 0.275
348 1 0.5 0.375 0.275
409 1 0.5 0.25 0.3
410 1 0.625 0.375 0.3
351 1 0.875 0.25 0.275
352 1 0.75 0.375 0.275
413 1 0.75 0.25 0.3
414 1 0.875 0.375 0.3
355 1 0.125 0.5 0.275
356 1 0 0.625 0.275
417 1 0 0.5 0.3
418 1 0.125 0.625 0.3
359 1 0.375 0.5 0.275
360 1 0.25 0.625 0.275
421 1 0.25 0.5 0.3
422 1 0.375 0.625 0.3
363 1 0.625 0.5 0.275
364 1 0.5 0.625 0.275
425 1 0.5 0.5 0.3
426 1 0.625 0.625 0.3
367 1 0.875 0.5 0.275
368 1 0.75 0.625 0.275
429 1 0.75 0.5 0.3
430 1 0.875 0.625 0.3
371 1 0.125 0.75 0.275
372 1 0 0.875 0.275
433 1 0 0.75 0.3
434 1 0.125 0.875 0.3
375 1 0.375 0.75 0.275
376 1 0.25 0.875 0.275
437 1 0.25 0.75 0.3
438 1 0.375 0.875 0.3
379 1 0.625 0.75 0.275
380 1 0.5 0.875 0.275
441 1 0.5 0.75 0.3
442 1 0.625 0.875 0.3
383 1 0.875 0.75 0.275
384 1 0.75 0.875 0.275
445 1 0.75 0.75 0.3
446 1 0.875 0.875 0.3
387 1 0.125 0 0.325
388 1 0 0.125 0.325
391 1 0.375 0 0.325
392 1 0.25 0.125 0.325
395 1 0.625 0 0.325
396 1 0.5 0.125 0.325
399 1 0.875 0 0.325
400 1 0.75 0.125 0.325
403 1 0.125 0.25 0.325
404 1 0 0.375 0.325
407 1 0.375 0.25 0.325
408 1 0.25 0.375 0.325
411 1 0.625 0.25 0.325
412 1 0.5 0.375 0.325
415 1 0.875 0.25 0.325
416 1 0.75 0.375 0.325
419 1 0.125 0.5 0.325
420 1 0 0.625 0.325
423 1 0.375 0.5 0.325
424 1 0.25 0.625 0.325
427 1 0.625 0.5 0.325
428 1 0.5 0.625 0.325
431 1 0.875 0.5 0.325
432 1 0.75 0.625 0.325
435 1 0.125 0.75 0.325
436 1 0 0.875 0.325
439 1 0.375 0.75 0.325
440 1 0.25 0.875 0.325
443 1 0.625 0.75 0.325
444 1 0.5 0.875 0.325
447 1 0.875 0.75 0.325
448 1 0.75 0.875 0.325
449 1 0 0 0.35
450 1 0.125 0.125 0.35
451 1 0.125 0 0.375
452 1 0 0.125 0.375
453 1 0.25 0 0.35
454 1 0.375 0.125 0.35
455 1 0.375 0 0.375
456 1 0.25 0.125 0.375
457 1 0.5 0 0.35
458 1 0.625 0.125 0.35
459 1 0.625 0 0.375
460 1 0.5 0.125 0.375
461 1 0.75 0 0.35
462 1 0.875 0.125 0.35
463 1 0.875 0 0.375
464 1 0.75 0.125 0.375
465 1 0 0.25 0.35
466 1 0.125 0.375 0.35
467 1 0.125 0.25 0.375
468 1 0 0.375 0.375
469 1 0.25 0.25 0.35
470 1 0.375 0.375 0.35
471 1 0.375 0.25 0.375
472 1 0.25 0.375 0.375
473 1 0.5 0.25 0.35
474 1 0.625 0.375 0.35
475 1 0.625 0.25 0.375
476 1 0.5 0.375 0.375
477 1 0.75 0.25 0.35
478 1 0.875 0.375 0.35
479 1 0.875 0.25 0.375
480 1 0.75 0.375 0.375
481 1 0 0.5 0.35
482 1 0.125 0.625 0.35
483 1 0.125 0.5 0.375
484 1 0 0.625 0.375
485 1 0.25 0.5 0.35
486 1 0.375 0.625 0.35
487 1 0.375 0.5 0.375
488 1 0.25 0.625 0.375
489 1 0.5 0.5 0.35
490 1 0.625 0.625 0.35
491 1 0.625 0.5 0.375
492 1 0.5 0.625 0.375
493 1 0.75 0.5 0.35
494 1 0.875 0.625 0.35
495 1 0.875 0.5 0.375
496 1 0.75 0.625 0.375
497 1 0 0.75 0.35
498 1 0.125 0.875 0.35
499 1 0.125 0.75 0.375
500 1 0 0.875 0.375
501 1 0.25 0.75 0.35
502 1 0.375 0.875 0.35
503 1 0.375 0.75 0.375
504 1 0.25 0.875 0.375
505 1 0.5 0.75 0.35
506 1 0.625 0.875 0.35
507 1 0.625 0.75 0.375
508 1 0.5 0.875 0.375
509 1 0.75 0.75 0.35
510 1 0.875 0.875 0.35
511 1 0.875 0.75 0.375
512 1 0.75 0.875 0.375
513 1 0 0 0.4
514 1 0.125 0.125 0.4
515 1 0.125 0 0.425
516 1 0 0.125 0.425
517 1 0.25 0 0.4
518 1 0.375 0.125 0.4
519 1 0.375 0 0.425
520 1 0.25 0.125 0.425
521 1 0.5 0 0.4
522 1 0.625 0.125 0.4
523 1 0.625 0 0.425
524 1 0.5 0.125 0.425
525 1 0.75 0 0.4
526 1 0.875 0.125 0.4
527 1 0.875 0 0.425
528 1 0.75 0.125 0.425
529 1 0 0.25 0.4
530 1 0.125 0.375 0.4
531 1 0.125 0.25 0.425
532 1 0 0.375 0.425
533 1 0.25 0.25 0.4
534 1 0.375 0.375 0.4
535 1 0.375 0.25 0.425
536 1 0.25 0.375 0.425
537 1 0.5 0.25 0.4
538 1 0.625 0.375 0.4
539 1 0.625 0.25 0.425
540 1 0.5 0.375 0.425
541 1 0.75 0.25 0.4
542 1 0.875 0.375 0.4
543 1 0.875 0.25 0.425
544 1 0.75 0.375 0.425
545 1 0 0.5 0.4
546 1 0.125 0.625 0.4
547 1 0.125 0.5 0.425
548 1 0 0.625 0.425
549 1 0.25 0.5 0.4
550 1 0.375 0.625 0.4
551 1 0.375 0.5 0.425
552 1 0.25 0.625 0.425
553 1 0.5 0.5 0.4
554 1 0.625 0.625 0.4
555 1 0.625 0.5 0.425
556 1 0.5 0.625 0.425
557 1 0.75 0.5 0.4
558 1 0.875 0.625 0.4
559 1 0.875 0.5 0.425
560 1 0.75 0.625 0.425
561 1 0 0.75 0.4
562 1 0.125 0.875 0.4
563 1 0.125 0.75 0.425
564 1 0 0.875 0.425
565 1 0.25 0.75 0.4
566 1 0.375 0.875 0.4
567 1 0.375 0.75 0.425
568 1 0.25 0.875 0.425
569 1 0.5 0.75 0.4
570 1 0.625 0.875 0.4
571 1 0.625 0.75 0.425
572 1 0.5 0.875 0.425
573 1 0.75 0.75 0.4
574 1 0.875 0.875 0.4
575 1 0.875 0.75 0.425
576 1 0.75 0.875 0.425
577 1 0 0 0.45
578 1 0.125 0.125 0.45
579 1 0.125 0 0.475
580 1 0 0.125 0.475
581 1 0.25 0 0.45
582 1 0.375 0.125 0.45
583 1 0.375 0 0.475
584 1 0.25 0.125 0.475
585 1 0.5 0 0.45
586 1 0.625 0.125 0.45
587 1 0.625 0 0.475
588 1 0.5 0.125 0.475
589 1 0.75 0 0.45
590 1 0.875 0.125 0.45
591 1 0.875 0 0.475
592 1 0.75 0.125 0.475
593 1 0 0.25 0.45
594 1 0.125 0.375 0.45
595 1 0.125 0.25 0.475
596 1 0 0.375 0.475
597 1 0.25 0.25 0.45
598 1 0.375 0.375 0.45
599 1 0.375 0.25 0.475
600 1 0.25 0.375 0.475
601 1 0.5 0.25 0.45
602 1 0.625 0.375 0.45
603 1 0.625 0.25 0.475
604 1 0.5 0.375 0.475
605 1 0.75 0.25 0.45
606 1 0.875 0.375 0.45
607 1 0.875 0.25 0.475
608 1 0.75 0.375 0.475
609 1 0 0.5 0.45
610 1 0.125 0.625 0.45
611 1 0.125 0.5 0.475
612 1 0 0.625 0.475
613 1 0.25 0.5 0.45
614 1 0.375 0.625 0.45
615 1 0.375 0.5 0.475
616 1 0.25 0.625 0.475
617 1 0.5 0.5 0.45
618 1 0.625 0.625 0.45
619 1 0.625 0.5 0.475
620 1 0.5 0.625 0.475
621 1 0.75 0.5 0.45
622 1 0.875 0.625 0.45
623 1 0.875 0.5 0.475
624 1 0.75 0.625 0.475
625 1 0 0.75 0.45
626 1 0.125 0.875 0.45
627 1 0.125 0.75 0.475
628 1 0 0.875 0.475
629 1 0.25 0.75 0.45
630 1 0.375 0.875 0.45
631 1 0.375 0.75 0.475
632 1 0.25 0.875 0.475
633 1 0.5 0.75 0.45
634 1 0.625 0.875 0.45
635 1 0.625 0.75 0.475
636 1 0.5 0.875 0.475
637 1 0.75 0.75 0.45
638 1 0.875 0.875 0.45
639 1 0.875 0.75 0.475
640 1 0.75 0.875 0.475
641 1 0 0 0.5
642 1 0.125 0.125 0.5
645 1 0.25 0 0.5
646 1 0.375 0.125 0.5
649 1 0.5 0 0.5
650 1 0.625 0.125 0.5
653 1 0.75 0 0.5
654 1 0.875 0.125 0.5
657 1 0 0.25 0.5
658 1 0.125 0.375 0.5
661 1 0.25 0.25 0.5
662 1 0.375 0.375 0.5
665 1 0.5 0.25 0.5
666 1 0.625 0.375 0.5
669 1 0.75 0.25 0.5
670 1 0.875 0.375 0.5
673 1 0 0.5 0.5
674 1 0.125 0.625 0.5
677 1 0.25 0.5 0.5
678 1 0.375 0.625 0.5
681 1 0.5 0.5 0.5
682 1 0.625 0.625 0.5
685 1 0.75 0.5 0.5
686 1 0.875 0.625 0.5
689 1 0 0.75 0.5
690 1 0.125 0.875 0.5
693 1 0.25 0.75 0.5
694 1 0.375 0.875 0.5
697 1 0.5 0.75 0.5
698 1 0.625 0.875 0.5
701 1 0.75 0.75 0.5
702 1 0.875 0.875 0.5
643 1 0.125 0 0.525
644 1 0 0.125 0.525
705 1 0 0 0.55
706 1 0.125 0.125 0.55
647 1 0.375 0 0.525
648 1 0.25 0.125 0.525
709 1 0.25 0 0.55
710 1 0.375 0.125 0.55
651 1 0.625 0 0.525
652 1 0.5 0.125 0.525
713 1 0.5 0 0.55
714 1 0.625 0.125 0.55
655 1 0.875 0 0.525
656 1 0.75 0.125 0.525
717 1 0.75 0 0.55
718 1 0.875 0.125 0.55
659 1 0.125 0.25 0.525
660 1 0 0.375 0.525
721 1 0 0.25 0.55
722 1 0.125 0.375 0.55
663 1 0.375 0.25 0.525
664 1 0.25 0.375 0.525
725 1 0.25 0.25 0.55
726 1 0.375 0.375 0.55
667 1 0.625 0.25 0.525
668 1 0.5 0.375 0.525
729 1 0.5 0.25 0.55
730 1 0.625 0.375 0.55
671 1 0.875 0.25 0.525
672 1 0.75 0.375 0.525
733 1 0.75 0.25 0.55
734 1 0.875 0.375 0.55
675 1 0.125 0.5 0.525
676 1 0 0.625 0.525
737 1 0 0.5 0.55
738 1 0.125 0.625 0.55
679 1 0.375 0.5 0.525
680 1 0.25 0.625 0.525
741 1 0.25 0.5 0.55
742 1 0.375 0.625 0.55
683 1 0.625 0.5 0.525
684 1 0.5 0.625 0.525
745 1 0.5 0.5 0.55
746 1 0.625 0.625 0.55
687 1 0.875 0.5 0.525
688 1 0.75 0.625 0.525
749 1 0.75 0.5 0.55
750 1 0.875 0.625 0.55
691 1 0.125 0.75 0.525
692 1 0 0.875 0.525
753 1 0 0.75 0.55
754 1 0.125 0.875 0.55
695 1 0.375 0.75 0.525
696 1 0.25 0.875 0.525
757 1 0.25 0.75 0.55
758 1 0.375 0.875 0.55
699 1 0.625 0.75 0.525
700 1 0.5 0.875 0.525
761 1 0.5 0.75 0.55
762 1 0.625 0.875 0.55
703 1 0.875 0.75 0.525
704 1 0.75 0.875 0.525
765 1 0.75 0.75 0.55
766 1 0.875 0.875 0.55
707 1 0.125 0 0.575
708 1 0 0.125 0.575
769 1 0 0 0.6
770 1 0.125 0.125 0.6
711 1 0.375 0 0.575
712 1 0.25 0.125 0.575
773 1 0.25 0 0.6
774 1 0.375 0.125 0.6
715 1 0.625 0 0.575
716 1 0.5 0.125 0.575
777 1 0.5 0 0.6
778 1 0.625 0.125 0.6
719 1 0.875 0 0.575
720 1 0.75 0.125 0.575
781 1 0.75 0 0.6
782 1 0.875 0.125 0.6
723 1 0.125 0.25 0.575
724 1 0 0.375 0.575
785 1 0 0.25 0.6
786 1 0.125 0.375 0.6
727 1 0.375 0.25 0.575
728 1 0.25 0.375 0.575
789 1 0.25 0.25 0.6
790 1 0.375 0.375 0.6
731 1 0.625 0.25 0.575
732 1 0.5 0.375 0.575
793 1 0.5 0.25 0.6
794 1 0.625 0.375 0.6
735 1 0.875 0.25 0.575
736 1 0.75 0.375 0.575
797 1 0.75 0.25 0.6
798 1 0.875 0.375 0.6
739 1 0.125 0.5 0.575
740 1 0 0.625 0.575
801 1 0 0.5 0.6
802 1 0.125 0.625 0.6
743 1 0.375 0.5 0.575
744 1 0.25 0.625 0.575
805 1 0.25 0.5 0.6
806 1 0.375 0.625 0.6
747 1 0.625 0.5 0.575
748 1 0.5 0.625 0.575
809 1 0.5 0.5 0.6
810 1 0.625 0.625 0.6
751 1 0.875 0.5 0.575
752 1 0.75 0.625 0.575
813 1 0.75 0.5 0.6
814 1 0.875 0.625 0.6
755 1 0.125 0.75 0.575
756 1 0 0.875 0.575
817 1 0 0.75 0.6
818 1 0.125 0.875 0.6
759 1 0.375 0.75 0.575
760 1 0.25 0.875 0.575
821 1 0.25 0.75 0.6
822 1 0.375 0.875 0.6
763 1 0.625 0.75 0.575
764 1 0.5 0.875 0.575
825 1 0.5 0.75 0.6
826 1 0.625 0.875 0.6
767 1 0.875 0.75 0.575
768 1 0.75 0.875 0.575
829 1 0.75 0.75 0.6
830 1 0.875 0.875 0.6
771 1 0.125 0 0.625
772 1 0 0.125 0.625
833 1 0 0 0.65
834 1 0.125 0.125 0.65
775 1 0.375 0 0.625
776 1 0.25 0.125 0.625
837 1 0.25 0 0.65
838 1 0.375 0.125 0.65
779 1 0.625 0 0.625
780 1 0.5 0.125 0.625
841 1 0.5 0 0.65
842 1 0.625 0.125 0.65
783 1 0.875 0 0.625
784 1 0.75 0.125 0.625
845 1 0.75 0 0.65
846 1 0.875 0.125 0.65
787 1 0.125 0.25 0.625
788 1 0 0.375 0.625
849 1 0 0.25 0.65
850 1 0.125 0.375 0.65
791 1 0.375 0.25 0.625
792 1 0.25 0.375 0.625
853 1 0.25 0.25 0.65
854 1 0.375 0.375 0.65
795 1 0.625 0.25 0.625
796 1 0.5 0.375 0.625
857 1 0.5 0.25 0.65
858 1 0.625 0.375 0.65
799 1 0.875 0.25 0.625
800 1 0.75 0.375 0.625
861 1 0.75 0.25 0.65
862 1 0.875 0.375 0.65
803 1 0.125 0.5 0.625
804 1 0 0.625 0.625
865 1 0 0.5 0.65
866 1 0.125 0.625 0.65
807 1 0.375 0.5 0.625
808 1 0.25 0.625 0.625
869 1 0.25 0.5 0.65
870 1 0.375 0.625 0.65
811 1 0.625 0.5 0.625
812 1 0.5 0.625 0.625
873 1 0.5 0.5 0.65
874 1 0.625 0.625 0.65
815 1 0.875 0.5 0.625
816 1 0.75 0.625 0.625
877 1 0.75 0.5 0.65
878 1 0.875 0.625 0.65
819 1 0.125 0.75 0.625
820 1 0 0.875 0.625
881 1 0 0.75 0.65
882 1 0.125 0.875 0.65
823 1 0.375 0.75 0.625
824 1 0.25 0.875 0.625
885 1 0.25 0.75 0.65
886 1 0.375 0.875 0.65
827 1 0.625 0.75 0.625
828 1 0.5 0.875 0.625
889 1 0.5 0.75 0.65
890 1 0.625 0.875 0.65
831 1 0.875 0.75 0.625
832 1 0.75 0.875 0.625
893 1 0.75 0.75 0.65
894 1 0.875 0.875 0.65
835 1 0.125 0 0.675
836 1 0 0.125 0.675
839 1 0.375 0 0.675
840 1 0.25 0.125 0.675
843 1 0.625 0 0.675
844 1 0.5 0.125 0.675
847 1 0.875 0 0.675
848 1 0.75 0.125 0.675
851 1 0.125 0.25 0.675
852 1 0 0.375 0.675
855 1 0.375 0.25 0.675
856 1 0.25 0.375 0.675
859 1 0.625 0.25 0.675
860 1 0.5 0.375 0.675
863 1 0.875 0.25 0.675
864 1 0.75 0.375 0.675
867 1 0.125 0.5 0.675
868 1 0 0.625 0.675
871 1 0.375 0.5 0.675
872 1 0.25 0.625 0.675
875 1 0.625 0.5 0.675
876 1 0.5 0.625 0.675
879 1 0.875 0.5 0.675
880 1 0.75 0.625 0.675
883 1 0.125 0.75 0.675
884 1 0 0.875 0.675
887 1 0.375 0.75 0.675
888 1 0.25 0.875 0.675
891 1 0.625 0.75 0.675
892 1 0.5 0.875 0.675
895 1 0.875 0.75 0.675
896 1 0.75 0.875 0.675
897 1 0 0 0.7
898 1 0.125 0.125 0.7
899 1 0.125 0 0.725
900 1 0 0.125 0.725
901 1 0.25 0 0.7
902 1 0.375 0.125 0.7
903 1 0.375 0 0.725
904 1 0.25 0.125 0.725
905 1 0.5 0 0.7
906 1 0.625 0.125 0.7
907 1 0.625 0 0.725
908 1 0.5 0.125 0.725
909 1 0.75 0 0.7
910 1 0.875 0.125 0.7
911 1 0.875 0 0.725
912 1 0.75 0.125 0.725
913 1 0 0.25 0.7
914 1 0.125 0.375 0.7
915 1 0.125 0.25 0.725
916 1 0 0.375 0.725
917 1 0.25 0.25 0.7
918 1 0.375 0.375 0.7
919 1 0.375 0.25 0.725
920 1 0.25 0.375 0.725
921 1 0.5 0.25 0.7
922 1 0.625 0.375 0.7
923 1 0.625 0.25 0.725
924 1 0.5 0.375 0.725
925 1 0.75 0.25 0.7
926 1 0.875 0.375 0.7
927 1 0.875 0.25 0.725
928 1 0.75 0.375 0.725
929 1 0 0.5 0.7
930 1 0.125 0.625 0.7
931 1 0.125 0.5 0.725
932 1 0 0.625 0.725
933 1 0.25 0.5 0.7
934 1 0.375 0.625 0.7
935 1 0.375 0.5 0.725
936 1 0.25 0.625 0.725
937 1 0.5 0.5 0.7
938 1 0.625 0.625 0.7
939 1 0.625 0.5 0.725
940 1 0.5 0.625 0.725
941 1 0.75 0.5 0.7
942 1 0.875 0.625 0.7
943 1 0.875 0.5 0.725
944 1 0.75 0.625 0.725
945 1 0 0.75 0.7
946 1 0.125 0.875 0.7
947 1 0.125 0.75 0.725
948 1 0 0.875 0.725
949 1 0.25 0.75 0.7
950 1 0.375 0.875 0.7
951 1 0.375 0.75 0.725
952 1 0.25 0.875 0.725
953 1 0.5 0.75 0.7
954 1 0.625 0.875 0.7
955 1 0.625 0.75 0.725
956 1 0.5 0.875 0.725
957 1 0.75 0.75 0.7
958 1 0.875 0.875 0.7
959 1 0.875 0.75 0.725
960 1 0.75 0.875 0.725
961 1 0 0 0.75
962 1 0.125 0.125 0.75
963 1 0.125 0 0.775
964 1 0 0.125 0.775
965 1 0.25 0 0.75
966 1 0.375 0.125 0.75
967 1 0.375 0 0.775
968 1 0.25 0.125 0.775
969 1 0.5 0 0.75
970 1 0.625 0.125 0.75
971 1 0.625 0 0.775
972 1 0.5 0.125 0.775
973 1 0.75 0 0.75
974 1 0.875 0.125 0.75
975 1 0.875 0 0.775
976 1 0.75 0.125 0.775
977 1 0 0.25 0.75
978 1 0.125 0.375 0.75
979 1 0.125 0.25 0.775
980 1 0 0.375 0.775
981 1 0.25 0.25 0.75
982 1 0.375 0.375 0.75
983 1 0.375 0.25 0.775
984 1 0.25 0.375 0.775
985 1 0.5 0.25 0.75
986 1 0.625 0.375 0.75
987 1 0.625 0.25 0.775
988 1 0.5 0.375 0.775
989 1 0.75 0.25 0.75
990 1 0.875 0.375 0.75
991 1 0.875 0.25 0.775
992 1 0.75 0.375 0.775
993 1 0 0.5 0.75
994 1 0.125 0.625 0.75
995 1 0.125 0.5 0.775
996 1 0 0.625 0.775
997 1 0.25 0.5 0.75
998 1 0.375 0.625 0.75
999 1 0.375 0.5 0.775
1000 1 0.25 0.625 0.775
1001 1 0.5 0.5 0.75
1002 1 0.625 0.625 0.75
1003 1 0.625 0.5 0.775
1004 1 0.5 0.625 0.775
1005 1 0.75 0.5 0.75
1006 1 0.875 0.625 0.75
1007 1 0.875 0.5 0.775
1008 1 0.75 0.625 0.775
1009 1 0 0.75 0.75
1010 1 0.125 0.875 0.75
1011 1 0.125 0.75 0.775
1012 1 0 0.875 0.775
1013 1 0.25 0.75 0.75
1014 1 0.375 0.875 0.75
1015 1 0.375 0.75 0.775
1016 1 0.25 0.875 0.775
1017 1 0.5 0.75 0.75
1018 1 0.625 0.875 0.75
1019 1 0.625 0.75 0.775
1020 1 0.5 0.875 0.775
1021 1 0.75 0.75 0.75
1022 1 0.875 0.875 0.75
1023 1 0.875 0.75 0.775
1024 1 0.75 0.875 0.775
1025 1 0 0 0.8
1026 1 0.125 0.125 0.8
1027 1 0.125 0 0.825
1028 1 0 0.125 0.825
1029 1 0.25 0 0.8
1030 1 0.375 0.125 0.8
1031 1 0.375 0 0.825
1032 1 0.25 0.125 0.825
1033 1 0.5 0 0.8
1034 1 0.625 0.125 0.8
1035 1 0.625 0 0.825
1036 1 0.5 0.125 0.825
1037 1 0.75 0 0.8
1038 1 0.875 0.125 0.8
1039 1 0.875 0 0.825
1040 1 0.75 0.125 0.825
1041 1 0 0.25 0.8
1042 1 0.125 0.375 0.8
1043 1 0.125 0.25 0.825
1044 1 0 0.375 0.825
1045 1 0.25 0.25 0.8
1046 1 0.375 0.375 0.8
1047 1 0.375 0.25 0.825
1048 1 0.25 0.375 0.825
1049 1 0.5 0.25 0.8
1050 1 0.625 0.375 0.8
1051 1 0.625 0.25 0.825
1052 1 0.5 0.375 0.825
1053 1 0.75 0.25 0.8
1054 1 0.875 0.375 0.8
1055 1 0.875 0.25 0.825
1056 1 0.75 0.375 0.825
1057 1 0 0.5 0.8
1058 1 0.125 0.625 0.8
1059 1 0.125 0.5 0.825
1060 1 0 0.625 0.825
1061 1 0.25 0.5 0.8
1062 1 0.375 0.625 0.8
1063 1 0.375 0.5 0.825
1064 1 0.25 0.625 0.825
1065 1 0.5 0.5 0.8
1066 1 0.625 0.625 0.8
1067 1 0.625 0.5 0.825
1068 1 0.5 0.625 0.825
1069 1 0.75 0.5 0.8
1070 1 0.875 0.625 0.8
1071 1 0.875 0.5 0.825
1072 1 0.75 0.625 0.825
1073 1 0 0.75 0.8
1074 1 0.125 0.875 0.8
1075 1 0.125 0.75 0.825
1076 1 0 0.875 0.825
1077 1 0.25 0.75 0.8
1078 1 0.375 0.875 0.8
1079 1 0.375 0.75 0.825
1080 1 0.25 0.875 0.825
1081 1 0.5 0.75 0.8
1082 1 0.625 0.875 0.8
1083 1 0.625 0.75 0.825
1084 1 0.5 0.875 0.825
1085 1 0.75 0.75 0.8
1086 1 0.875 0.875 0.8
1087 1 0.875 0.75 0.825
1088 1 0.75 0.875 0.825
1089 1 0 0 0.85
1090 1 0.125 0.125 0.85
1093 1 0.25 0 0.85
1094 1 0.375 0.125 0.85
1097 1 0.5 0 0.85
1098 1 0.625 0.125 0.85
1101 1 0.75 0 0.85
1102 1 0.875 0.125 0.85
1105 1 0 0.25 0.85
1106 1 0.125 0.375 0.85
1109 1 0.25 0.25 0.85
1110 1 0.375 0.375 0.85
1113 1 0.5 0.25 0.85
1114 1 0.625 0.375 0.85
1117 1 0.75 0.25 0.85
1118 1 0.875 0.375 0.85
1121 1 0 0.5 0.85
1122 1 0.125 0.625 0.85
1125 1 0.25 0.5 0.85
1126 1 0.375 0.625 0.85
1129 1 0.5 0.5 0.85
1130 1 0.625 0.625 0.85
1133 1 0.75 0.5 0.85
1134 1 0.875 0.625 0.85
1137 1 0 0.75 0.85
1138 1 0.125 0.875 0.85
1141 1 0.25 0.75 0.85
1142 1 0.375 0.875 0.85
1145 1 0.5 0.75 0.85
1146 1 0.625 0.875 0.85
1149 1 0.75 0.75 0.85
1150 1 0.875 0.875 0.85
1091 1 0.125 0 0.875
1092 1 0 0.125 0.875
1153 1 0 0 0.9
1154 1 0.125 0.125 0.9
1095 1 0.375 0 0.875
1096 1 0.25 0.125 0.875
1157 1 0.25 0 0.9
1158 1 0.375 0.125 0.9
1099 1 0.625 0 0.875
1100 1 0.5 0.125 0.875
1161 1 0.5 0 0.9
1162 1 0.625 0.125 0.9
1103 1 0.875 0 0.875
1104 1 0.75 0.125 0.875
1165 1 0.75 0 0.9
1166 1 0.875 0.125 0.9
1107 1 0.125 0.25 0.875
1108 1 0 0.375 0.875
1169 1 0 0.25 0.9
1170 1 0.125 0.375 0.9
1111 1 0.375 0.25 0.875
1112 1 0.25 0.375 0.875
1173 1 0.25 0.25 0.9
1174 1 0.375 0.375 0.9
1115 1 0.625 0.25 0.875
1116 1 0.5 0.375 0.875
1177 1 0.5 0.25 0.9
1178 1 0.625 0.375 0.9
1119 1 0.875 0.25 0.875
1120 1 0.75 0.375 0.875
1181 1 0.75 0.25 0.9
1182 1 0.875 0.375 0.9
1123 1 0.125 0.5 0.875
1124 1 0 0.625 0.875
1185 1 0 0.5 0.9
1186 1 0.125 0.625 0.9
1127 1 0.375 0.5 0.875
1128 1 0.25 0.625 0.875
1189 1 0.25 0.5 0.9
1190 1 0.375 0.625 0.9
1131 1 0.625 0.5 0.875
1132 1 0.5 0.625 0.875
1193 1 0.5 0.5 0.9
1194 1 0.625 0.625 0.9
1135 1 0.875 0.5 0.875
1136 1 0.75 0.625 0.875
1197 1 0.75 0.5 0.9
1198 1 0.875 0.625 0.9
1139 1 0.125 0.75 0.875
1140 1 0 0.875 0.875
1201 1 0 0.75 0.9
1202 1 0.125 0.875 0.9
1143 1 0.375 0.75 0.875
1144 1 0.25 0.875 0.875
1205 1 0.25 0.75 0.9
1206 1 0.375 0.875 0.9
1147 1 0.625 0.75 0.875
1148 1 0.5 0.875 0.875
1209 1 0.5 0.75 0.9
1210 1 0.625 0.875 0.9
1151 1 0.875 0.75 0.875
1152 1 0.75 0.875 0.875
1213 1 0.75 0.75 0.9
1214 1 0.875 0.875 0.9
1155 1 0.125 0 0.925
1156 1 0 0.125 0.925
1217 1 0 0 0.95
1218 1 0.125 0.125 0.95
1159 1 0.375 0 0.925
1160 1 0.25 0.125 0.925
1221 1 0.25 0 0.95
1222 1 0.375 0.125 0.95
1163 1 0.625 0 0.925
1164 1 0.5 0.125 0.925
1225 1 0.5 0 0.95
1226 1 0.625 0.125 0.95
1167 1 0.875 0 0.925
1168 1 0.75 0.125 0.925
1229 1 0.75 0 0.95
1230 1 0.875 0.125 0.95
1171 1 0.125 0.25 0.925
1172 1 0 0.375 0.925
1233 1 0 0.25 0.95
1234 1 0.125 0.375 0.95
1175 1 0.375 0.25 0.925
1176 1 0.25 0.375 0.925
1237 1 0.25 0.25 0.95
1238 1 0.375 0.375 0.95
1179 1 0.625 0.25 0.925
1180 1 0.5 0.375 0.925
1241 1 0.5 0.25 0.95
1242 1 0.625 0.375 0.95
1183 1 0.875 0.25 0.925
1184 1 0.75 0.375 0.925
1245 1 0.75 0.25 0.95
1246 1 0.875 0.375 0.95
1187 1 0.125 0.5 0.925
1188 1 0 0.625 0.925
1249 1 0 0.5 0.95
1250 1 0.125 0.625 0.95
1191 1 0.375 0.5 0.925
1192 1 0.25 0.625 0.925
1253 1 0.25 0.5 0.95
1254 1 0.375 0.625 0.95
1195 1 0.625 0.5 0.925
1196 1 0.5 0.625 0.925
1257 1 0.5 0.5 0.95
1258 1 0.625 0.625 0.95
1199 1 0.875 0.5 0.925
1200 1 0.75 0.625 0.925
1261 1 0.75 0.5 0.95
1262 1 0.875 0.625 0.95
1203 1 0.125 0.75 0.925
1204 1 0 0.875 0.925
1265 1 0 0.75 0.95
1266 1 0.125 0.875 0.95
1207 1 0.375 0.75 0.925
1208 1 0.25 0.875 0.925
1269 1 0.25 0.75 0.95
1270 1 0.375 0.875 0.95
1211 1 0.625 0.75 0.925
1212 1 0.5 0.875 0.925
1273 1 0.5 0.75 0.95
1274 1 0.625 0.875 0.95
1215 1 0.875 0.75 0.925
1216 1 0.75 0.875 0.925
1277 1 0.75 0.75 0.95
1278 1 0.875 0.875 0.95
1219 1 0.125 0 0.975
1220 1 0 0.125 0.975
1223 1 0.375 0 0.975
1224 1 0.25 0.125 0.975
1227 1 0.625 0 0.975
1228 1 0.5 0.125 0.975
1231 1 0.875 0 0.975
1232 1 0.75 0.125 0.975
1235 1 0.125 0.25 0.975
1236 1 0 0.375 0.975
1239 1 0.375 0.25 0.975
1240 1 0.25 0.375 0.975
1243 1 0.625 0.25 0.975
1244 1 0.5 0.375 0.975
1247 1 0.875 0.25 0.975
1248 1 0.75 0.375 0.975
1251 1 0.125 0.5 0.975
1252 1 0 0.625 0.975
1255 1 0.375 0.5 0.975
1256 1 0.25 0.625 0.975
1259 1 0.625 0.5 0.975
1260 1 0.5 0.625 0.975
1263 1 0.875 0.5 0.975
1264 1 0.75 0.625 0.975
1267 1 0.125 0.75 0.975
1268 1 0 0.875 0.975
1271 1 0.375 0.75 0.975
1272 1 0.25 0.875 0.975
1275 1 0.625 0.75 0.975
1276 1 0.5 0.875 0.975
1279 1 0.875 0.75 0.975
1280 1 0.75 0.875 0.975
ITEM: TIMESTEP
1000
ITEM: NUMBER OF ATOMS
1280
ITEM: BOX BOUNDS pp pp pp
-0.121311 16.3213
-0.121311 16.3213
-0.606553 81.6066
ITEM: ATOMS id type xs ys zs
2 1 0.129129 0.119374 0.00541615
3 1 0.126513 0.00199279 0.0286728
8 1 0.248227 0.128965 0.029182
6 1 0.382549 0.11817 0.000506228
7 1 0.356883 0.00576479 0.0274776
12 1 0.484876 0.107596 0.029852
23 1 0.385321 0.226353 0.025864
10 1 0.616749 0.127932 0.00520131
16 1 0.73465 0.12639 0.0266892
4 1 0.999664 0.132073 0.0241386
14 1 0.852441 0.140502 0.00399262
17 1 0.977097 0.247853 0.00150332
19 1 0.12252 0.258755 0.022227
33 1 0.0193119 0.476174 0.0016162
35 1 0.115391 0.478508 0.02693
37 1 0.216286 0.489471 0.00639756
22 1 0.350256 0.369643 0.00229306
24 1 0.260676 0.370747 0.0271129
28 1 0.497185 0.417651 0.0221475
39 1 0.346352 0.488773 0.0275048
27 1 0.610093 0.268576 0.0284367
29 1 0.743381 0.260956 0.00282348
32 1 0.748132 0.395754 0.0257439
45 1 0.748448 0.496973 0.000660387
20 1 0.987972 0.377281 0.0299892
31 1 0.863083 0.256406 0.0289797
36 1 0.0262151 0.603215 0.0264962
40 1 0.224686 0.618815 0.0298984
51 1 0.116328 0.746673 0.0246199
38 1 0.336475 0.609649 0.0054699
44 1 0.499706 0.624155 0.0298435
43 1 0.626232 0.50556 0.0223448
48 1 0.746104 0.619486 0.0229564
47 1 0.87779 0.507572 0.0255206
63 1 0.884628 0.716229 0.0272922
5 1 0.249329 0.988658 0.00275715
49 1 0.0113556 0.756939 0.00187908
50 1 0.131874 0.880151 0.00251202
56 1 0.242056 0.873826 0.024774
55 1 0.351233 0.757015 0.0240697
11 1 0.617123 0.980012 0.0251717
13 1 0.742486 0.986056 0.0024801
59 1 0.629475 0.760143 0.0216617
60 1 0.501353 0.867595 0.0275187
15 1 0.871645 0.999786 0.0227896
52 1 0.987297 0.898827 0.0270718
64 1 0.775337 0.870184 0.0279865
66 1 0.11003 0.147271 0.0483854
67 1 0.108696 0.00465092 0.075134
69 1 0.228038 0.00165181 0.0532325
72 1 0.21338 0.121087 0.0797996
83 1 0.104954 0.242132 0.0751
85 1 0.24186 0.240059 0.0537309
70 1 0.365206 0.12274 0.0551883
89 1 0.485374 0.221569 0.0539436
74 1 0.631386 0.11846 0.0482054
76 1 0.514514 0.10601 0.080742
80 1 0.724197 0.128243 0.0738946
91 1 0.606981 0.245833 0.0778473
65 1 0.995666 0.0155849 0.051265
68 1 0.99873 0.119845 0.07983
77 1 0.750744 0.0125056 0.047713
78 1 0.868892 0.129859 0.0484537
79 1 0.851552 0.0172766 0.0756345
81 1 0.989471 0.24884 0.0515681
95 1 0.854366 0.243413 0.0753126
82 1 0.120087 0.373537 0.051092
88 1 0.239092 0.353116 0.0730712
97 1 0.0115016 0.482609 0.0538954
99 1 0.143907 0.469094 0.0793485
101 1 0.231504 0.491063 0.0531194
86 1 0.381915 0.361125 0.0497657
87 1 0.362032 0.250575 0.0783414