LAMMPS (13 Jan 2014)
dimension       3
boundary        p p p
units           metal

atom_style	atomic
neighbor	0.3 bin
neigh_modify	every 10 delay 0 check no

# Number of steps for the equilibration steps
variable        eqsteps equal 50000

# Number of steps to run our NPH simulation
variable        simsteps equal 200000

# Our trial melting temperature
variable	T equal 950.0
variable	T2 equal 2*${T}
variable	T2 equal 2*950

# Some high temperature to melt the crystal
variable	Tmelt equal 2000.0

#System size
variable	nx equal 10
variable	ny equal 10
variable	nz equal 20
variable	nzhalf equal ${nz}*0.5
variable	nzhalf equal 20*0.5
variable	a equal 4.050
variable	length equal ${nz}*${a}
variable	length equal 20*${a}
variable	length equal 20*4.05

lattice		fcc ${a}
lattice		fcc 4.05
Lattice spacing in x,y,z = 4.05 4.05 4.05

region         box block 0 ${nx} 0 ${ny} 0 ${nz}
region         box block 0 10 0 ${ny} 0 ${nz}
region         box block 0 10 0 10 0 ${nz}
region         box block 0 10 0 10 0 20
create_box     1 box
Created orthogonal box = (0 0 0) to (40.5 40.5 81)
  1 by 1 by 1 MPI processor grid
create_atoms   1 box
Created 8000 atoms

mass		1 26.9815

pair_style	eam/alloy
pair_coeff	* * Al_potential.alloy Al

velocity	all create ${T2} 1337
velocity	all create 1900 1337

# Create a dump file. This can be visualized with
# e.g. OVITO (http://www.ovito.org/)
dump		id all atom 1000 atomsdump

# 1 fs timestep
timestep	0.001
thermo_style	custom step temp etotal pe press pxx pyy pzz lx ly lz

# output every 100th timestep
thermo		100

# Equilibration the whole system to the trial melting temperature
fix		1 all npt temp ${T} ${T} 1 iso 0 0 3 drag 1.0
fix		1 all npt temp 950 ${T} 1 iso 0 0 3 drag 1.0
fix		1 all npt temp 950 950 1 iso 0 0 3 drag 1.0
run		${eqsteps}
run		50000
Memory usage per processor = 5.95314 Mbytes
Step Temp TotEng PotEng Press Pxx Pyy Pzz Lx Ly Lz 
       0         1900   -25212.743   -27177.252    11729.747    11586.221    11571.375    12031.644         40.5         40.5           81 
     100    911.80017   -25232.661   -26175.419    30211.108    30518.181    30254.938    29860.204    40.589377    40.589377    81.178755 
     200    894.62619   -25262.861   -26187.861    18582.356    19223.602     18521.36    18002.106    40.801396    40.801396    81.602792 
     300    889.54807   -25276.613   -26196.363    9335.0553    9324.4317    9111.2435    9569.4906     40.97542     40.97542     81.95084 
     400    881.23999    -25279.24     -26190.4    3512.0633    3289.1139    3883.1894    3363.8865     41.09538     41.09538    82.190761 
     500    864.58522   -25277.083   -26171.022   -277.81365   -177.43404   -135.09978   -520.90713    41.182065    41.182065    82.364129 
     600    863.82064   -25272.877   -26166.026   -2769.8884    -2453.882   -2900.5973    -2955.186    41.237605    41.237605    82.475209 
     700     856.2953   -25268.398   -26153.766   -3726.4306   -3731.7422   -3647.4298   -3800.1198    41.262463    41.262463    82.524927 
     800      870.721   -25264.434   -26164.718   -3816.2258   -3577.6497   -4187.6672   -3683.3606    41.261491    41.261491    82.522981 
     900    868.07821   -25261.111   -26158.663   -2653.5958   -2461.3736   -2471.7799    -3027.634    41.241119    41.241119    82.482239 
    1000    877.35949   -25257.935   -26165.082   -1348.4302   -1311.9824    -1220.826    -1512.482    41.211318    41.211318    82.422636 
    1100    879.79867   -25254.629   -26164.298    121.00894    671.22828   -132.60967   -175.59179    41.181701    41.181701    82.363401 
    1200    878.05482   -25251.197   -26159.064    1388.4301    1717.0156    1059.2946    1388.9802    41.159667    41.159667    82.319334 
    1300    887.45503    -25247.85   -26165.436    1698.3164    2019.8701    1575.6668    1499.4123    41.148961    41.148961    82.297923 
    1400    885.44057   -25244.699   -26160.202    1822.3889    2199.2763    1464.4311    1803.4593    41.149803    41.149803    82.299605 
    1500    877.28381   -25241.658   -26148.727      1522.49    1564.2009    2269.3111    733.95805    41.160237    41.160237    82.320474 
    1600    891.97681   -25238.525   -26160.786    560.27221    811.53585    845.83019    23.450576    41.176921    41.176921    82.353842 
    1700    889.64463   -25235.353   -26155.202   -152.79286    389.80965   -299.32893    -548.8593    41.194357    41.194357    82.388714 
    1800    881.96196   -25232.098   -26144.005   -555.50054   -546.04685   -517.75371   -602.70108    41.208486    41.208486    82.416971 
    1900    874.20627   -25228.805   -26132.693   -706.22112    106.99073   -1218.7354   -1006.9187    41.217074    41.217074    82.434149 
    2000    891.99716   -25225.483   -26147.765   -1118.3601   -1235.4598   -876.19859   -1243.4219    41.219573    41.219573    82.439145 
    2100    880.36202   -25222.252   -26132.504   -589.87953   -662.38132   -630.97435   -476.28293    41.216022    41.216022    82.432044 
    2200    878.68747   -25219.086   -26127.606   -115.07622    79.090974   -433.04576    8.7261293    41.208615    41.208615     82.41723 
    2300    889.82673    -25215.93   -26135.968    198.53122   -154.86415    176.53928    573.91852    41.200394    41.200394    82.400787 
    2400    896.80905   -25212.837   -26140.094    389.72354    88.911871    597.45735    482.80141    41.193696    41.193696    82.387392 
    2500    902.73185   -25209.811   -26143.193    556.21453     211.1964     727.0771     730.3701    41.190518    41.190518    82.381037 
    2600    884.67995   -25206.893    -26121.61    1052.9062    1005.0617    1366.6694    786.98748    41.191477    41.191477    82.382954 
    2700    907.06662   -25204.022   -26141.885    397.58448     374.8551    440.27259    377.62576    41.196365    41.196365    82.392731 
    2800      900.448   -25201.235   -26132.255    282.23556    27.267343    620.91107    198.52829    41.203499    41.203499    82.406998 
    2900    898.89899   -25198.385   -26127.803   -61.528338   -45.310456   -262.74945     123.4749    41.211704    41.211704    82.423408 
    3000    890.23554   -25195.574   -26116.035   -32.543998   -4.6316006   -140.52382    47.523428    41.218319    41.218319    82.436637 
    3100    909.09699   -25192.758    -26132.72   -676.45254   -896.62737   -553.17297   -579.55728    41.222661    41.222661    82.445322 
    3200    901.28929       -25190    -26121.89   -456.56208   -374.15483   -284.49594   -711.03546    41.223712    41.223712    82.447424 
    3300    898.69568   -25187.257   -26116.465    -279.1161   -286.19453     39.89753   -591.05129    41.222143    41.222143    82.444286 
    3400    903.99852   -25184.597   -26119.288   -100.90344    224.64478   -38.201915   -489.15317    41.218312    41.218312    82.436624 
    3500    907.22698   -25181.964   -26119.993    81.246727   -74.451598    256.85939    61.332388    41.214144    41.214144    82.428287 
    3600    907.29434   -25179.411    -26117.51    373.30993    888.00994   -28.645101    260.56495    41.210873    41.210873    82.421746 
    3700    908.95524   -25176.843   -26116.659    430.96649    111.72147    402.25018    778.92783    41.210227    41.210227    82.420454 
    3800     911.9522   -25174.321   -26117.235    429.82374    393.98647    552.54965    342.93509    41.212232    41.212232    82.424464 
    3900    916.04944   -25171.879   -26119.031    135.97423    287.34065    289.02589   -168.44385    41.216137    41.216137    82.432274 
    4000    909.98132   -25169.464   -26110.341    4.9815342    258.96723   -55.981003   -188.04163    41.221428    41.221428    82.442856 
    4100    911.56022   -25167.042   -26109.551   -171.13305   -509.62474    30.022243   -33.796667    41.226828    41.226828    82.453656 
    4200    917.07672   -25164.656   -26112.869   -419.34539   -78.088623   -405.06341   -774.88415    41.230834    41.230834    82.461669 
    4300    916.00975   -25162.338   -26109.448   -435.73291   -135.20967    -499.9173   -672.07176    41.232471    41.232471    82.464942 
    4400    924.87448   -25160.055   -26116.331   -419.83908   -207.74644   -634.48198   -417.28884    41.232103    41.232103    82.464206 
    4500    918.85158   -25157.804   -26107.852   -80.702666    68.459621   -310.77249   0.20486661    41.230686    41.230686    82.461373 
    4600    915.08879   -25155.596   -26101.753    122.60506    460.78639   -99.224095    6.2528791    41.228705    41.228705     82.45741 
    4700    911.99509   -25153.458   -26096.417    303.24712    446.62695    225.30529    237.80911    41.226794    41.226794    82.453588 
    4800    918.74853   -25151.292   -26101.233    240.55718   -239.17023    590.66479    370.17698    41.226276    41.226276    82.452553 
    4900    913.98446   -25149.205   -26094.221    394.60119    485.46261    827.23423   -128.89327    41.226774    41.226774    82.453548 
    5000    916.21563   -25147.137    -26094.46    315.49238    434.91253    968.97551   -457.41091    41.228848    41.228848    82.457697 
    5100    937.47158   -25145.071   -26114.371   -314.40224   -354.76809   -453.89713    -134.5415    41.232024    41.232024    82.464048 
    5200    915.53664   -25143.133   -26089.754    276.12127     339.2959     343.7962    145.27171    41.234546    41.234546    82.469091 
    5300    917.80062   -25141.191   -26090.153   -8.1804377     369.3009     51.03419   -444.87641    41.237086    41.237086    82.474172 
    5400    914.34167   -25139.271   -26084.656    116.70213   -254.50303    162.12502     442.4844    41.238591    41.238591    82.477181 
    5500    924.94897   -25137.326   -26093.679   -217.24645   -613.61954    -1.133336   -36.986483    41.239491    41.239491    82.478981 
    5600    917.97639    -25135.47   -26084.613    188.33844    225.81937    549.72759   -210.53163    41.238699    41.238699    82.477399 
    5700    929.59464   -25133.625   -26094.781    80.856022    413.24402   -8.8739615   -161.80199    41.237708    41.237708    82.475417 
    5800    931.82054   -25131.814   -26095.272   -64.815171   -311.84208    30.738538    86.658034    41.237123    41.237123    82.474245 
    5900    929.45499   -25130.089   -26091.101    202.33178    507.79368   -317.76896    416.97061    41.236697    41.236697    82.473394 
    6000    931.23935   -25128.395   -26091.252    149.09393   -148.69343     383.8743    212.10092    41.237253    41.237253    82.474507 
    6100    933.23604   -25126.752   -26091.674     41.70364     78.21013   -72.135501    119.03629    41.238563    41.238563    82.477125 
    6200    931.85407   -25125.166   -26088.659     21.20747    357.24831   -263.81483   -29.811075    41.240284    41.240284    82.480567 
    6300    935.63277   -25123.592   -26090.992   -40.703495    356.88165   -657.88397    178.89184    41.242334    41.242334    82.484668 
    6400    931.49487   -25122.035   -26085.156   -16.432838   -511.85569   -143.31891    605.87609    41.244413    41.244413    82.488826 
    6500    926.97129   -25120.488   -26078.932    115.10002   -492.98255     263.4985    574.78409    41.246232    41.246232    82.492464 
    6600    925.49205   -25118.931   -26075.845    33.507486   -100.67531   -402.34067    603.53843    41.247777    41.247777    82.495554 
    6700    937.07249   -25117.382    -26086.27   -284.65643    -244.1606   -573.52967   -36.279017    41.248544    41.248544    82.497087 
    6800    929.20667   -25115.872   -26076.627    48.161307     394.5303   -284.52844    34.482054    41.248066    41.248066    82.496132 
    6900    929.58738   -25114.379   -26075.528    150.66373   -4.5010108    276.01344    180.47877    41.246966    41.246966    82.493932 
    7000    938.21376    -25112.93   -26082.998   -5.0493637    10.407982    186.07347   -211.62954    41.245768    41.245768    82.491537 
    7100    946.01415   -25111.511   -26089.645   -154.24966       -450.3     -101.745    89.296007    41.245036    41.245036    82.490071 
    7200     937.0348    -25110.21   -26079.059     179.6682    138.09086    105.78548    295.12826    41.244464    41.244464    82.488928 
    7300    928.23409   -25108.911    -26068.66    449.42437    396.75256    1003.5222   -52.001603    41.245251    41.245251    82.490502 
    7400    949.14853   -25107.602   -26088.976   -218.03217   -527.41674   -165.61381    38.934033    41.247564    41.247564    82.495127 
    7500    933.17561   -25106.311   -26071.169    99.448887    278.93177    -131.7749     151.1898    41.250193    41.250193    82.500386 
    7600    935.22488   -25105.004   -26071.981   -52.470253   -508.78558   -65.782542    417.15737    41.252995    41.252995    82.505989 
    7700    931.28172   -25103.785   -26066.685   -1.3675001    -215.8426   -230.54833    442.28843    41.254901    41.254901    82.509802 
    7800    930.20684   -25102.551    -26064.34   -26.195356    62.833104   -178.72018    37.301006     41.25619     41.25619     82.51238 
    7900    944.26017   -25101.375   -26077.695   -195.61843   -635.29993    30.104704    18.339938    41.256104    41.256104    82.512207 
    8000    933.22579   -25100.275   -26065.185    131.88244   -34.460314   -149.04817     579.1558    41.254876    41.254876    82.509752 
    8100    947.46318   -25099.174   -26078.805   -185.86329    153.20505    40.135913   -750.93084    41.253433    41.253433    82.506866 
    8200    931.89893   -25098.131    -26061.67    362.67489    413.33334    189.38307    485.30827    41.251781    41.251781    82.503562 
    8300    957.35325   -25097.015   -26086.872   -333.78685   -673.69381   -209.16699   -118.49976    41.251455    41.251455    82.502911 
    8400    946.08523       -25096   -26074.206    11.107664    414.35127   -496.88416    115.85588    41.251341    41.251341    82.502683 
    8500    933.74044   -25095.043   -26060.486    404.73586    281.84789    431.24276    501.11694    41.252018    41.252018    82.504035 
    8600     940.2117   -25094.123   -26066.256    207.70034    7.5533097    110.03818    505.50954     41.25354     41.25354     82.50708 
    8700    945.79043    -25093.21   -26071.112    34.299162   -157.43206    409.79613   -149.46658    41.255828    41.255828    82.511656 
    8800    943.30592   -25092.346   -26067.679   -68.614036    136.62133   -164.14069   -178.32275     41.25814     41.25814    82.516281 
    8900     944.0524    -25091.54   -26067.645   -174.21446   -289.02517   -656.83601     423.2178    41.259652    41.259652    82.519304 
    9000    942.23877    -25090.79   -26065.019   -135.05909    50.775212     92.02756   -547.98005    41.259906    41.259906    82.519812 
    9100    939.27639   -25090.078   -26061.245    30.260065    30.817403   -83.498509     143.4613    41.259009    41.259009    82.518017 
    9200    947.83687   -25089.365   -26069.382   -96.843261   -539.70618    236.63602    12.540378    41.257659    41.257659    82.515317 
    9300    939.58062    -25088.66   -26060.141    202.35817    231.12137    161.93156    214.02158    41.256393    41.256393    82.512785 
    9400    948.26501   -25087.953   -26068.413    39.848313   -502.41343   -89.224703    711.18307    41.255696    41.255696    82.511392 
    9500    944.42399   -25087.327   -26063.816    202.12318   -92.538322    514.52452    184.38335    41.255362    41.255362    82.510724 
    9600    940.95374    -25086.72   -26059.621    227.78218    106.32875   -122.31158    699.32935    41.255976    41.255976    82.511951 
    9700    935.20861   -25086.127   -26053.087    385.96725    437.98081    27.175715    692.74523    41.257287    41.257287    82.514574 
    9800    951.11397   -25085.547   -26068.953    -174.2475    254.71902   -661.39449   -116.06704    41.259158    41.259158    82.518317 
    9900      953.901   -25084.994   -26071.281   -216.61787   -403.74635   -65.477803   -180.62947    41.260849    41.260849    82.521697 
   10000    953.44107   -25084.469   -26070.281   -349.46378   -294.04335    -586.6205   -167.72749    41.261945    41.261945    82.523891 
   10100    930.00265   -25083.972    -26045.55    186.00438   -108.94971   -237.30686    904.26972    41.262231    41.262231    82.524463 
   10200    944.80037   -25083.443   -26060.321   -67.711526   -648.64815    182.33467    263.17891    41.262217    41.262217    82.524435 
   10300    945.95095   -25082.927   -26060.995   -73.033942    202.77415   -541.63354    119.75756    41.261653    41.261653    82.523306 
   10400    952.51621   -25082.409   -26067.265   -139.85332    -189.6434    132.34663    -362.2632    41.260697    41.260697    82.521393 
   10500    958.55537   -25081.981   -26073.081   -256.95009   -495.43423     172.0764   -447.49245    41.259263    41.259263    82.518527 
   10600    951.31561   -25081.599   -26065.214    49.317788    164.94915   -39.351929    22.356146    41.258215    41.258215    82.516431 
   10700    957.04963   -25081.217   -26070.761    -72.91787    -151.9141   -56.896845   -9.9426627    41.258318    41.258318    82.516636 
   10800    943.56858   -25080.866   -26056.471    275.61718    769.45334    87.534044   -30.135831    41.259269    41.259269    82.518538 
   10900    934.80084   -25080.573   -26047.113     339.5226    624.44432      332.533    61.590485    41.260905    41.260905     82.52181 
   11000    935.33628   -25080.272   -26047.365    231.00333    305.02131    492.42372   -104.43503    41.263022    41.263022    82.526044 
   11100     949.6311   -25079.982   -26061.855    -223.4975    237.15581   0.31973031   -907.96804    41.264782    41.264782    82.529564 
   11200    939.86904   -25079.704   -26051.483    70.486608    25.802014    8.2843978    177.37341    41.265497    41.265497    82.530994 
   11300    940.04384   -25079.415   -26051.375    178.65284    288.61981    383.93777   -136.59904    41.265647    41.265647    82.531294 
   11400    960.31573   -25079.174   -26072.094   -386.84857   -371.39561   -713.28267   -75.867447    41.265299    41.265299    82.530597 
   11500    940.90156   -25078.971   -26051.818    37.022698    55.235827   -250.70267    306.53494    41.264068    41.264068    82.528137 
   11600    950.04394   -25078.708   -26061.008   -38.411739    162.37279    118.12442   -395.73243    41.262926    41.262926    82.525852 
   11700    948.84596   -25078.493   -26059.554    122.05989    4.5094092    222.31852    139.35175     41.26177     41.26177     82.52354 
   11800    952.33654   -25078.308   -26062.979   -51.900603    263.78612   -349.15212   -70.335806    41.260905    41.260905     82.52181 
   11900    942.28448   -25078.155   -26052.432    324.42326     66.11267    505.82572    401.33138    41.260358    41.260358    82.520715 
   12000    957.35424   -25078.025   -26067.883   -18.687061    123.18592   -354.73337    175.48627    41.260788    41.260788    82.521576 
   12100    948.83808   -25077.937   -26058.989    110.42224    326.12876   -163.91847    169.05644    41.261494    41.261494    82.522987 
   12200    961.15801   -25077.833   -26071.624   -300.94296    -285.6696   -291.94349   -325.21578    41.262679    41.262679    82.525358 
   12300    947.90996   -25077.806   -26057.899    3.2423872   -272.90082   -228.10487    510.73285    41.263373    41.263373    82.526747 
   12400    946.11316   -25077.764       -26056    -33.36687    -276.2406    406.32549    -230.1855    41.264126    41.264126    82.528251 
   12500    954.81464   -25077.651   -26064.883   -274.01668    52.530575   -398.28212    -476.2985    41.265217    41.265217    82.530434 
   12600    937.67831   -25077.571   -26047.085    125.50484    180.26093   -499.41154    695.66512    41.265481    41.265481    82.530963 
   12700    942.62173   -25077.538   -26052.163    45.890413    219.59014   -434.62026    352.70135    41.264671    41.264671    82.529342 
   12800    963.61503   -25077.466   -26073.798   -319.05011   -100.10659   -210.27529   -646.76844    41.263626    41.263626    82.527253 
   12900    936.30798   -25077.515   -26045.613     411.6229   -196.43681    661.81946    769.48605    41.261665    41.261665    82.523331 
   13000    949.47897   -25077.463   -26059.179    94.679864    307.29991    158.33931   -181.59963    41.260761    41.260761    82.521521 
   13100    946.44448   -25077.429   -26056.007    194.77289    126.91989     324.3204    133.07837    41.260493    41.260493    82.520986 
   13200    949.13639   -25077.414   -26058.776    94.265047    446.51699   -437.31418    273.59234    41.260983    41.260983    82.521966 
   13300     959.3833   -25077.392   -26069.348   -119.21797   -428.20489   -716.17821     786.7292     41.26226     41.26226    82.524521 
   13400    940.08274   -25077.361   -26049.362    235.75271    15.683358   -90.548869    782.12365    41.264021    41.264021    82.528043 
   13500    934.57372   -25077.322   -26043.626    405.38929    312.83011    354.69795    548.63979    41.265824    41.265824    82.531648 
   13600    939.57603   -25077.277   -26048.754    94.514228    500.98682    -281.3623    63.918165    41.267556    41.267556    82.535113 
   13700    952.93027   -25077.206    -26062.49   -282.09299   -336.41692   -232.78781   -277.07424    41.268367    41.268367    82.536734 
   13800    956.71136   -25077.189   -26066.383   -345.57111   -477.85278   -84.292876   -474.56766     41.26757     41.26757     82.53514 
   13900    942.51512   -25077.183   -26051.699     108.7381    -111.7272   -192.22946    630.17096    41.265715    41.265715     82.53143 
   14000    943.42143   -25077.169   -26052.621    145.32842    467.80337    145.66423   -177.48235    41.263535    41.263535    82.527071 
   14100    947.15456    -25077.22   -26056.532    160.44191    231.07225    74.608591    175.64489    41.260869    41.260869    82.521739 
   14200    947.94242   -25077.266   -26057.393    266.62191    348.51009    139.58264    311.77301    41.258728    41.258728    82.517457 
   14300    943.53826    -25077.26   -26052.833    476.28731    471.85439       717.66    239.34755    41.258053    41.258053    82.516107 
   14400    944.06023   -25077.261   -26053.374    328.64157    198.09005    287.87874    499.95594    41.258912    41.258912    82.517824 
   14500    949.66327   -25077.294     -26059.2    173.87337    334.24008    121.56015     65.81989    41.260816    41.260816    82.521632 
   14600    955.40877    -25077.35   -26065.197   -96.239325   -60.362936   -915.33566    686.98063    41.263144    41.263144    82.526288 
   14700    950.11993   -25077.403   -26059.781   -61.881553    92.944529   -457.00677    178.41758    41.265379    41.265379    82.530757 
   14800    952.27747   -25077.382   -26061.991   -299.63527   -434.45631   -117.12011   -347.32941    41.267093    41.267093    82.534186 
   14900    943.85617   -25077.379   -26053.281   -44.894773   -538.21182     128.0826     275.4449    41.267311    41.267311    82.534622 
   15000    957.68255   -25077.338   -26067.535   -326.31482   -1109.6528    410.20352   -279.49512     41.26664     41.26664    82.533279 
   15100    952.84649   -25077.285   -26062.482    -126.2995   -139.42044   -481.15605    241.67798    41.265037    41.265037    82.530075 
   15200    947.65828   -25077.264   -26057.097    37.028275   -177.24208    235.87547    52.451442    41.262883    41.262883    82.525766 
   15300    952.51315   -25077.196   -26062.048    6.4809935   -511.55013    346.54549    184.44762    41.261141    41.261141    82.522281 
   15400    947.17362   -25077.142   -26056.473    320.76072    246.85592    132.22068    583.20557    41.259761    41.259761    82.519523 
   15500    946.59545   -25077.128   -26055.862    289.76938    165.28841    696.53333    7.4864004    41.259147    41.259147    82.518294 
   15600     952.1042   -25077.063   -26061.493   -19.020009   -129.40652   -2.8555761    75.202071    41.260011    41.260011    82.520023 
   15700    944.78284   -25076.962   -26053.822    158.25324    607.44944   -146.78407    14.094351      41.2617      41.2617    82.523401 
   15800    942.16052   -25076.848   -26050.997     143.0126   -141.67458    512.26771    58.444676    41.263589    41.263589    82.527177 
   15900    950.49649   -25076.731   -26059.499   -102.31549   -457.13045    246.65618   -96.472208    41.265325    41.265325    82.530651 
   16000     944.2498   -25076.628   -26052.936    42.163096    531.35125   -547.05895    142.19698    41.266449    41.266449    82.532898 
   16100    938.64801   -25076.528   -26047.045    139.89682    199.10294    346.79022   -126.20271    41.267052    41.267052    82.534104 
   16200    961.25646   -25076.435   -26070.328   -521.36393   -622.01546   -176.17928   -765.89706    41.266801    41.266801    82.533603 
   16300    947.17688   -25076.401   -26055.736   -73.911964   -563.95012    362.13522    -19.92099    41.265137    41.265137    82.530275 
   16400    947.84608   -25076.342   -26056.369       87.829   -244.64137      298.266    209.86236    41.263074    41.263074    82.526148 
   16500    950.60822   -25076.279   -26059.162    122.37691    375.80325    302.15789   -310.83043    41.261187    41.261187    82.522374 
   16600    944.95105   -25076.207   -26053.241    298.13961    481.52797    95.926405    316.96445    41.260169    41.260169    82.520339 
   16700     970.5979   -25076.105   -26079.656    -270.8572   -204.50858   -359.31263   -248.75038      41.2606      41.2606    82.521201 
   16800    946.89632   -25076.127   -26055.172    153.99715    167.04191    75.173407    219.77614    41.261152    41.261152    82.522305 
   16900    953.92207   -25076.097   -26062.407   -67.168008    292.59055   -179.57171   -314.52286     41.26289     41.26289    82.525781 
   17000     946.8326   -25076.113   -26055.092    48.993224    254.12744    198.78607   -305.93385    41.264461    41.264461    82.528922 
   17100    951.66028   -25076.102   -26060.073   -142.61165    103.85711   -666.86964    135.17758    41.266022    41.266022    82.532044 
   17200      956.213   -25076.092    -26064.77   -217.56641    290.14988   -611.01427   -331.83483    41.266793    41.266793    82.533586 
   17300     949.9678    -25076.15   -26058.371   -131.49516    301.31731   -401.90325   -293.89955    41.266401    41.266401    82.532803 
   17400    955.39388   -25076.201   -26064.032   -261.82982   -45.710653   -866.66639    126.88758    41.265626    41.265626    82.531251 
   17500    942.83586   -25076.212   -26051.059    173.60648    364.93534    164.57946   -8.6953656     41.26446     41.26446    82.528919 
   17600    952.86043   -25076.209   -26061.421   -151.62417   -244.67644    73.342477   -283.53856    41.263266    41.263266    82.526532 
   17700    945.87347   -25076.224   -26054.212    215.40987    221.94645    572.97142   -148.68825    41.261727    41.261727    82.523454 
   17800    947.14512    -25076.26   -26055.563     169.5837    31.483777    308.31391    168.95343    41.260584    41.260584    82.521168 
   17900    956.28956   -25076.317   -26065.075    52.496616    -126.6048    228.01671     56.07794     41.26024     41.26024    82.520479 
   18000    952.37077   -25076.372   -26061.077     49.15278   -239.70675    296.19669    90.968399    41.261073    41.261073    82.522145 
   18100     964.3558   -25076.389   -26073.487   -305.29626   -357.20832   -233.29888   -325.38156    41.262963    41.262963    82.525926 
   18200    944.88734   -25076.488   -26053.456    184.11859    238.08031    468.72802   -154.45256    41.264461    41.264461    82.528922 
   18300    951.64295     -25076.5   -26060.453   -139.99207   -91.840627    26.110595   -354.24617    41.266697    41.266697    82.533395 
   18400    952.01846   -25076.462   -26060.804   -237.79621   -890.46467     253.2736   -76.197565    41.268872    41.268872    82.537744 
   18500    947.04129   -25076.456   -26055.652   -201.74231   -448.07094    -314.1813    157.02531    41.269594    41.269594    82.539189 
   18600    945.81886   -25076.419    -26054.35   -172.71264   -168.18192   -558.52333    208.56733     41.26891     41.26891    82.537821 
   18700    942.24555    -25076.39   -26050.627    49.771608    287.32571   -84.218534   -53.792355    41.266666    41.266666    82.533332 
   18800    952.11384   -25076.365   -26060.805   -95.624897   -636.01086     102.3291    246.80707    41.263687    41.263687    82.527374 
   18900    945.39522   -25076.336   -26053.829     320.1739   -65.122553    167.80922    857.83504    41.260838    41.260838    82.521675 
   19000    948.18039   -25076.339   -26056.712    264.67641   -210.74371    746.65543    258.11752    41.258878    41.258878    82.517757 
   19100     949.6744   -25076.334   -26058.252    309.25071   -116.87305    727.96404    316.66115    41.258314    41.258314    82.516629 
   19200    952.41583   -25076.332   -26061.084    58.369612    199.52579    323.85782   -348.27477    41.259324    41.259324    82.518649 
   19300    954.00617   -25076.373   -26062.769    43.003766     -105.322    458.22331   -223.89001    41.260939    41.260939    82.521878 
   19400      941.886   -25076.466   -26050.331    174.49757     328.1977    228.17684   -32.881817    41.262938    41.262938    82.525876 
   19500    950.37146   -25076.493   -26059.132   -145.79743   -17.619908    336.60142    -756.3738    41.265424    41.265424    82.530848 
   19600    952.24908   -25076.524   -26061.104   -298.81557   -472.89895   -8.4368362   -415.11093     41.26732     41.26732    82.534641 
   19700    944.55797   -25076.552    -26053.18   -112.79554    276.27102    -72.80847   -541.84915    41.267934    41.267934    82.535868 
   19800    945.20478   -25076.541   -26053.838    -60.31972   -88.724995    90.532963   -182.76713    41.267209    41.267209    82.534417 
   19900    937.37161    -25076.51   -26045.708    158.32688    117.59323   -203.42897    560.81638    41.265533    41.265533    82.531066 
   20000    948.81295   -25076.415   -26057.442   -57.198474   -84.550701    259.61575   -346.66048    41.263803    41.263803    82.527607 
   20100    955.14976   -25076.355   -26063.934   -87.753097   -109.62564   -25.517539   -128.11611    41.261691    41.261691    82.523383 
   20200    941.81282   -25076.311     -26050.1    246.39286   -40.680898    367.14898    412.71049    41.259917    41.259917    82.519833 
   20300    947.09879   -25076.235   -26055.489    172.37783     170.7548    6.4732856     339.9054     41.25952     41.25952     82.51904 
   20400      952.624   -25076.177   -26061.144    37.290952    389.24989   -192.63276   -84.744274    41.260269    41.260269    82.520537 
   20500    941.61817   -25076.219   -26049.806    457.32627    681.91894    593.33017    96.729711    41.261382    41.261382    82.522765 
   20600    951.08702   -25076.245   -26059.623   -45.903007    368.35864    0.7610815   -506.82875    41.263676    41.263676    82.527352 
   20700    956.35247   -25076.328   -26065.151   -278.14484    8.4190071   -399.36303   -443.49049     41.26568     41.26568     82.53136 
   20800    948.26506   -25076.425   -26056.885   -123.19906    412.05333   -184.24736   -597.40315    41.266981    41.266981    82.533962 
   20900    956.18089   -25076.456   -26065.101   -374.94046   -42.356457   -676.95988   -405.50505    41.267999    41.267999    82.535998 
   21000    942.30889   -25076.435   -26050.737    3.9805675   -95.665093   -314.24996    421.85676      41.2682      41.2682    82.536399 
   21100    953.74555   -25076.398   -26062.525   -229.70513   -358.17026   -438.27665    107.33153    41.267608    41.267608    82.535216 
   21200     946.3289   -25076.396   -26054.855    5.7619846   -193.68203   -55.120936    266.08892    41.265896    41.265896    82.531792 
   21300    945.69105   -25076.377   -26054.176     69.46364    411.60464    22.144185   -225.35791    41.263767    41.263767    82.527534 
   21400    942.63013    -25076.31   -26050.944    279.62005    249.90205    470.97013    117.98796    41.261858    41.261858    82.523716 
   21500    961.89636   -25076.234   -26070.789   -231.41509   -223.56909   -162.24748    -308.4287     41.26054     41.26054     82.52108 
   21600    954.55289   -25076.187   -26063.148    32.673975    1022.6226   -541.99979   -382.60092    41.259938    41.259938    82.519877 
   21700    957.55032   -25076.114   -26066.175    23.680619    291.28725   -42.684937   -177.56046    41.260557    41.260557    82.521114 
   21800    955.41636   -25076.006   -26063.861    43.340458   -8.0554277   -155.34616    293.42296    41.262166    41.262166    82.524332 
   21900    950.07304   -25075.949   -26058.279    -21.56633    407.92761   -223.91615   -248.71044    41.264036    41.264036    82.528072 
   22000    953.40908   -25075.885   -26061.664    -262.3729   -17.031107   -227.52941    -542.5582     41.26592     41.26592     82.53184 
   22100    963.80168   -25075.801   -26072.326   -473.70321   -417.79122   -228.06677   -775.25164    41.267441    41.267441    82.534882 
   22200    949.59357   -25075.768   -26057.602   -207.44306   -57.093786   -215.52341   -349.71198    41.267742    41.267742    82.535484 
   22300     954.2903   -25075.713   -26062.403   -272.33018   -71.317023   -377.09588   -368.57762    41.266919    41.266919    82.533837 
   22400      936.756   -25075.715   -26044.276    215.48685    577.31202   -357.97118    427.11973    41.264791    41.264791    82.529581 
   22500    946.66137   -25075.672   -26054.474     142.8487    438.04937   -203.13327       193.63    41.262769    41.262769    82.525539 
   22600     941.3749    -25075.65   -26048.986    324.38206     -79.4502    727.24099     325.3554    41.261119    41.261119    82.522238 
   22700    947.98151   -25075.622   -26055.789    214.73815    169.61281    347.36573    127.23591    41.260349    41.260349    82.520698 
   22800    952.75768   -25075.619   -26060.725    61.957001    420.19463    72.787925   -307.11155    41.260234    41.260234    82.520468 
   22900    958.19476   -25075.616   -26066.343   -135.09113    438.44816   -171.15864    -672.5629    41.260974    41.260974    82.521947 
   23000      955.384   -25075.621   -26063.442   -31.694019    55.832751   -188.93348    38.018672    41.262276    41.262276    82.524552 
   23100    952.84008   -25075.671   -26060.862   -74.372965    419.24995   -242.44266   -399.92619      41.2638      41.2638      82.5276 
   23200    941.82345   -25075.742   -26049.542    150.75748     724.9851   -383.47128    110.75862    41.265164    41.265164    82.530327 
   23300    955.10548     -25075.8   -26063.333   -247.86412    76.061685   -658.77652   -160.87754    41.266319    41.266319    82.532637 
   23400    949.55554   -25075.857   -26057.652   -4.2725939    170.59498   -84.378272   -99.034488    41.266509    41.266509    82.533018 
   23500    943.59232   -25075.946   -26051.575     96.84677    42.996493    145.64879    101.89503    41.265963    41.265963    82.531926 
   23600    953.10726   -25076.064   -26061.531   -84.674743    80.305469   -84.331765   -249.99793    41.264919    41.264919    82.529837 
   23700    954.49033   -25076.131   -26063.028    -117.8005   -50.817321    279.16181   -581.74597    41.263925    41.263925     82.52785 
   23800    946.36082   -25076.185   -26054.677    73.889057    475.28914    77.124273   -330.74624     41.26303     41.26303     82.52606 
   23900    950.53797   -25076.214   -26059.025    48.654409     150.4156    175.54906   -180.00143    41.262495    41.262495    82.524989 
   24000    953.65828    -25076.21   -26062.247   -54.584434    661.13242   -500.14224   -324.74348    41.262474    41.262474    82.524947 
   24100    941.06005   -25076.221   -26049.232    300.00324    798.28819    293.71467   -191.99315    41.262626    41.262626    82.525252 
   24200    964.32786   -25076.209   -26073.278   -270.74722    249.96954   -839.54919   -222.66202     41.26349     41.26349    82.526979 
   24300    943.90701   -25076.198   -26052.153    140.65278    439.11688   -176.48739    159.32885    41.264452    41.264452    82.528903 
   24400    957.65239    -25076.14   -26066.307   -439.26339    188.63579   -863.92189   -642.50406    41.265397    41.265397    82.530793 
   24500    961.02879   -25076.076   -26069.734   -359.92399   -99.553603   -779.05249   -201.16588    41.265391    41.265391    82.530783 
   24600    944.36198   -25076.081   -26052.506    110.10754    597.63844   -263.90286   -3.4129711     41.26441     41.26441    82.528819 
   24700    942.22285   -25076.017    -26050.23    307.12178    267.39071    398.92103    255.05362    41.263548    41.263548    82.527097 
   24800    940.82413   -25075.981   -26048.748    369.40818    949.75956    468.25347   -309.78848    41.262838    41.262838    82.525676 
   24900    946.80492   -25075.951   -26054.902    266.90134    795.69478     163.1464   -158.13715    41.262642    41.262642    82.525284 
   25000    952.05885   -25075.931   -26060.314    38.660442    98.795126   -72.517804    89.704005    41.263143    41.263143    82.526287 
   25100    941.94756   -25075.915   -26049.844    294.88968    488.10681       56.072    340.49025    41.264248    41.264248    82.528497 
   25200    956.64575   -25075.906   -26065.031   -252.07587   -830.16391   -407.94044    481.87674    41.265567    41.265567    82.531135 
   25300    953.06296   -25075.916   -26061.338   -166.64729   -932.39257    340.77698    91.673741    41.266038    41.266038    82.532077 
   25400    946.09063   -25075.984   -26054.196     57.16877    194.51615    57.805534   -80.815373    41.265578    41.265578    82.531155 
   25500    945.51518   -25076.075   -26053.693    49.472769    67.545689    526.50993   -445.63731    41.264822    41.264822    82.529643 
   25600    949.75227   -25076.124   -26058.123    12.336456   -10.361291    -91.18831    138.55897    41.264276    41.264276    82.528552 
   25700    960.73134   -25076.169   -26069.519    -194.4031   -352.37362   -55.729125   -175.10655     41.26357     41.26357     82.52714 
   25800    955.30741   -25076.275   -26064.017   -22.510811   -574.09344     502.9364    3.6246036    41.262386    41.262386    82.524772 
   25900    946.67574   -25076.396   -26055.213    217.41979    398.61136    17.810481    235.83753    41.261563    41.261563    82.523126 
   26000    955.86604   -25076.525   -26064.844   -7.5931152    184.32849    107.04919   -314.15702    41.261302    41.261302    82.522604 
   26100     946.2423   -25076.689   -26055.058    70.886317   -87.118403    211.36167    88.415682    41.261184    41.261184    82.522368 
   26200    956.12142   -25076.817   -26065.401    -116.2454   -172.94176    162.73105    -338.5255    41.261629    41.261629    82.523258 
   26300     951.6532   -25077.003   -26060.967    52.265492    6.2068699     366.9133    -216.3237    41.261928    41.261928    82.523856 
   26400    950.15987   -25077.095   -26059.515   -14.075216   -93.032263    343.82832    -293.0217    41.263115    41.263115    82.526229 
   26500    960.72989   -25077.138   -26070.486   -241.75213   -222.84122   -515.01066    12.595475    41.264733    41.264733    82.529466 
   26600     945.0688   -25077.213   -26054.369    54.253193    351.88382    93.567082   -282.69133    41.265731    41.265731    82.531463 
   26700    947.71545    -25077.28   -26057.172   -33.964039    179.95655   -131.78415   -150.06452    41.266095    41.266095    82.532189 
   26800    953.03169   -25077.328   -26062.717   -252.55197   -466.55383    100.90426   -392.00634    41.265942    41.265942    82.531883 
   26900    957.65467   -25077.349   -26067.518   -342.76383   -356.81129   -412.39385   -259.08634    41.265236    41.265236    82.530471 
   27000    936.34829   -25077.404   -26045.543    227.58142   -91.013554    101.83166    671.92615    41.263451    41.263451    82.526903 
   27100    948.45197    -25077.42   -26058.073    34.950446   -249.72148     429.5616    -74.98878    41.261603    41.261603    82.523207 
   27200    962.24258   -25077.402   -26072.315   -148.64142   -213.08506    138.73021   -371.56939    41.260249    41.260249    82.520499 
   27300    942.57256   -25077.377   -26051.952    359.51527    384.79516     315.4426    378.30805     41.25971     41.25971     82.51942 
   27400    947.25225   -25077.341   -26056.755    262.78991    604.29832    304.22874   -120.15734    41.260249    41.260249    82.520498 
   27500    959.74192    -25077.31   -26069.637   -176.76989   -650.10153    262.17024   -142.37837    41.261805    41.261805    82.523609 
   27600    943.85869   -25077.302   -26053.206    143.62948     399.2067     78.16195   -46.480201    41.263336    41.263336    82.526673 
   27700    940.25726   -25077.323   -26049.504    183.62355    655.03775    65.245385    -169.4125    41.264539    41.264539    82.529077 
   27800    949.30218   -25077.327   -26058.859   -34.087111    249.08243   -63.231745   -288.11202    41.265737    41.265737    82.531475 
   27900    948.77337   -25077.245   -26058.231   -128.93577    134.44897   -265.81458   -255.44171    41.267064    41.267064    82.534127 
   28000    943.42036   -25077.199    -26052.65    -7.955828   -507.56078    344.46668    139.22662     41.26734     41.26734     82.53468 
   28100    950.60798   -25077.128   -26060.011   -54.596533   -580.51444    301.72813    114.99671    41.266768    41.266768    82.533536 
   28200    956.35273   -25077.103   -26065.926   -276.92577   -674.80981    -182.1311    26.163599    41.265095    41.265095     82.53019 
   28300    944.48917   -25077.089   -26053.645    180.61697    85.178033    161.66192    295.01096     41.26278     41.26278    82.525561 
   28400    956.97452   -25077.054    -26066.52   -141.41037   -237.28916   -293.72771    106.78575    41.261222    41.261222    82.522443 
   28500    951.87825   -25077.081   -26061.278    135.37207    208.40625     54.60371    143.10624    41.260007    41.260007    82.520014 
   28600    946.25243    -25077.11    -26055.49     271.5108    548.52968    296.15357   -30.150842    41.259944    41.259944    82.519887 
   28700    942.75289   -25077.122   -26051.883    293.98537    356.80947    -34.24005     559.3867    41.261079    41.261079    82.522158 
   28800    953.83135   -25077.124    -26063.34   -46.257843     64.60524    72.404283   -275.78305    41.263031    41.263031    82.526061 
   28900     956.0997   -25077.118   -26065.679   -165.70074   -688.89959   -190.81257    382.60996    41.265072    41.265072    82.530144 
   29000    939.61404   -25077.135   -26048.651    95.449785    294.88151   -51.551878    43.019729    41.266654    41.266654    82.533308 
   29100    956.89266   -25077.069    -26066.45   -418.69776   -539.51694   -140.45965   -576.11668    41.268018    41.268018    82.536035 
   29200    950.54092   -25077.054   -26059.867   -162.39732   -551.93885     21.19616    43.550724    41.267788    41.267788    82.535575 
   29300    951.21418   -25076.987   -26060.497   -174.82259   -380.38362   -111.25145   -32.832689    41.266868    41.266868    82.533737 
   29400    957.79489   -25076.929   -26067.243   -323.67673   -529.42843   -421.10908   -20.492693    41.265183    41.265183    82.530365 
   29500    950.75959    -25076.85   -26059.889   -5.9345106    338.35859   -126.23527   -229.92685    41.263134    41.263134    82.526268 
   29600    964.07036   -25076.753   -26073.556   -325.83524   -404.39409   -516.35117   -56.760452    41.261622    41.261622    82.523243 
   29700    950.75694   -25076.745   -26059.782    290.72683    41.639489    319.18617    511.35484    41.260222    41.260222    82.520444 
   29800    951.51659   -25076.765   -26060.587    117.16074    67.524271   -11.011259    294.96921    41.260037    41.260037    82.520075 
   29900     963.5765    -25076.73   -26073.022   -162.99568   -72.315411   -633.51314    216.84152    41.261191    41.261191    82.522383 
   30000    952.75379   -25076.707   -26061.808     5.871174    198.02575    197.04354   -377.45577    41.262992    41.262992    82.525984 
   30100    957.14897   -25076.658   -26066.304   -285.91463   -71.726977    35.623837   -821.64074    41.265147    41.265147    82.530295 
   30200    931.56933   -25076.663   -26039.861    378.33376    1010.4061    206.99966   -82.404439    41.266077    41.266077    82.532153 
   30300    948.75334   -25076.616   -26057.581   -177.08482   -126.11218   -39.887673   -365.25462     41.26668     41.26668    82.533359 
   30400    957.90846   -25076.459   -26066.891   -258.67781   -629.90106     -249.142    103.00962    41.267187    41.267187    82.534374 
   30500    948.11901   -25076.426   -26056.735   -109.14286    225.49534     -659.519    106.59509    41.266476    41.266476    82.532952 
   30600    950.72929   -25076.397   -26059.405   -16.863953   -577.85467    444.02608    83.236736     41.26527     41.26527    82.530539 
   30700     944.5944    -25076.41   -26053.075    130.28705    51.886969   -424.90826    763.88243    41.263596    41.263596    82.527192 
   30800     951.7303   -25076.401   -26060.444   -29.532768    217.44278   -62.526726   -243.51436    41.262232    41.262232    82.524464 
   30900    954.73851   -25076.412   -26063.566   -58.608466    256.34429   -312.08892   -120.08077    41.261267    41.261267    82.522535 
   31000    928.31771   -25076.439   -26036.275    737.91572    934.55887    441.25321    837.93508    41.261031    41.261031    82.522061 
   31100    956.48019   -25076.471   -26065.425   -138.99552    303.39485   -586.20635   -134.17504    41.261995    41.261995     82.52399 
   31200    954.08795   -25076.509    -26062.99   -17.578246    581.11523   -424.43831   -209.41166    41.263188    41.263188    82.526377 
   31300    944.26003   -25076.594   -26052.913    13.986295   -321.69322   -118.35896    482.01107    41.264044    41.264044    82.528089 
   31400    940.36417   -25076.673   -26048.965    145.53975   -3.0441331    59.593764    380.06963    41.264463    41.264463    82.528926 
   31500    939.61337   -25076.716   -26048.231     133.0679    393.67938   -158.77621    164.30053    41.264408    41.264408    82.528817 
   31600    958.76507   -25076.729   -26068.046    -281.2297    59.064192   -429.98228   -472.77103    41.264149    41.264149    82.528299 
   31700    952.94595   -25076.784   -26062.085   -68.846437   -464.90058    404.06078   -145.69951    41.263114    41.263114    82.526229 
   31800    955.68328   -25076.868   -26064.999   -158.44381   -391.27761     -140.327    56.273176    41.261743    41.261743    82.523486 
   31900    944.76328   -25076.946   -26053.786    208.28847    687.70171   -46.101936    -16.73437    41.260467    41.260467    82.520934 
   32000    953.82855   -25076.943   -26063.156   -9.3523619   -86.231944    311.18368   -253.00882    41.260159    41.260159    82.520318 
   32100    950.54168   -25076.947   -26059.761    99.415382    498.90386   -5.3488491   -195.30887    41.260262    41.260262    82.520525 
   32200    956.15661   -25076.938   -26065.558   -156.33255   -151.73064    332.16663   -649.43364    41.260839    41.260839    82.521679 
   32300    943.65523   -25076.954   -26052.648    182.37563     629.5234      384.891   -467.28753    41.261602    41.261602    82.523204 
   32400     953.0841   -25076.917    -26062.36    -108.3982    69.642513   -174.42391    -220.4132    41.263087    41.263087    82.526173 
   32500    948.43346    -25076.89   -26057.525   -3.2907298    -594.4517    148.39089    436.18861    41.264354    41.264354    82.528707 
   32600    949.63591   -25076.882    -26058.76   -11.557819    396.74407    46.991581   -478.40911    41.265208    41.265208    82.530417 
   32700    952.80709   -25076.862   -26062.018   -130.90723   -192.91436   -315.01296    115.20564    41.265826    41.265826    82.531653 
   32800    950.75056   -25076.844   -26059.875   -85.665353   -281.90283   -98.079605    122.98637    41.265781    41.265781    82.531562 
   32900    944.25299   -25076.805   -26053.117     75.77852   -191.22156    593.37294   -174.81582     41.26525     41.26525      82.5305 
   33000     957.8955   -25076.747   -26067.165   -184.19017   -688.90565   -246.93293    383.26809    41.264581    41.264581    82.529161 
   33100    948.32821   -25076.778   -26057.304   -8.1877385   -183.65728   -444.72677    603.82083    41.263145    41.263145     82.52629 
   33200    956.59224   -25076.766   -26065.836   -73.278819   -429.03937   -140.80251    350.00543    41.261852    41.261852    82.523705 
   33300    946.56264   -25076.733   -26055.433    207.12286     144.8274    69.968141    406.57304    41.261207    41.261207    82.522415 
   33400    951.21098   -25076.768   -26060.274    57.988432    245.48666   -141.07184    69.550475    41.260739    41.260739    82.521479 
   33500    957.12066   -25076.789   -26066.406   -111.56746    -294.2577    117.84597   -158.29064    41.261052    41.261052    82.522105 
   33600    950.51224   -25076.795   -26059.578   -86.967966   -485.37415    365.92977   -141.45952    41.261995    41.261995     82.52399 
   33700    958.22401   -25076.756   -26067.513   -268.79902   -683.50223    76.318086   -199.21292    41.263334    41.263334    82.526668 
   33800    946.37041   -25076.755   -26055.256    83.391334    10.993579    299.03158   -59.851152    41.264163    41.264163    82.528327 
   33900    952.44619   -25076.781   -26061.564   -24.718123   -186.15967    187.46792   -75.462623    41.264445    41.264445     82.52889 
   34000    942.40405    -25076.79   -26051.191    158.96046    525.41257   -15.233841   -33.297339    41.264599    41.264599    82.529197 
   34100    949.62306   -25076.745    -26058.61   -141.16394    251.76111   -319.46366   -355.78928    41.264914    41.264914    82.529829 
   34200    939.22101   -25076.766   -26047.875     126.4745    524.18314   -55.400264   -89.359365    41.264208    41.264208    82.528417 
   34300     961.7198   -25076.743   -26071.115   -192.80296    -335.3378   -52.132774   -190.93831    41.263546    41.263546    82.527093 
   34400    955.23088   -25076.735   -26064.398   -115.98488    72.547321   -358.14993   -62.352029    41.262998    41.262998    82.525995 
   34500    949.26192   -25076.735   -26058.226    14.509282    69.816942   -140.19563    113.90653    41.262762    41.262762    82.525524 
   34600     943.3966    -25076.73   -26052.157    228.81251   -405.61844     388.6188    703.43718    41.262847    41.262847    82.525695 
   34700    945.61963   -25076.682   -26054.407    148.34782    793.88152   -460.23144    111.39339    41.263384    41.263384    82.526768 
   34800    954.96368   -25076.616   -26064.003     -139.385    141.02141   -490.75711   -68.419289    41.264083    41.264083    82.528167 
   34900    951.67735   -25076.536   -26060.525   -15.649768    31.371753    77.702763   -156.02382    41.264723    41.264723    82.529445 
   35000    950.93402   -25076.442   -26059.662    -128.3682   -84.193179   -507.29738    206.38595     41.26539     41.26539    82.530781 
   35100    948.17529   -25076.331   -26056.698   -21.989259   -327.67175     -28.0364    289.74037    41.265694    41.265694    82.531387 
   35200    950.91231   -25076.242   -26059.439   -93.752102   -304.39935    134.26868   -111.12565    41.265451    41.265451    82.530903 
   35300    961.70535   -25076.131   -26070.488   -347.50812   -633.15782     80.45125   -489.81779    41.264931    41.264931    82.529863 
   35400    952.98737   -25076.092   -26061.435   -82.798077   -362.32825   -12.716148    126.65016    41.263813    41.263813    82.527626 
   35500     951.7337    -25076.08   -26060.127    59.171309    182.87061    270.23682   -275.59351    41.262637    41.262637    82.525274 
   35600    951.22038   -25076.117   -26059.633    3.5724904    542.03851   -19.047383   -512.27366    41.261833    41.261833    82.523666 
   35700     945.8226   -25076.171   -26054.106    202.06403    88.193812    243.97039    274.02788    41.261354    41.261354    82.522707 
   35800    941.99528   -25076.195   -26050.173    334.88138    503.56201    353.32977    147.75235    41.261436    41.261436    82.522871 
   35900    949.25931   -25076.236   -26057.725    48.286677   -287.28674     58.71786    373.42891    41.262273    41.262273    82.524546 
   36000    955.06306   -25076.272   -26063.762   -64.260672   -123.03532    257.06416   -326.81086    41.263543    41.263543    82.527087 
   36100    950.54487    -25076.33   -26059.147   -22.127311   -282.16082    245.08997   -29.311086    41.264864    41.264864    82.529727 
   36200    953.83328   -25076.387   -26062.604   -131.32923    285.94863   -230.08416   -449.85216    41.265873    41.265873    82.531745 
   36300    946.57421    -25076.45   -26055.162    -10.20958   -434.75221    133.93879    270.18468    41.266213    41.266213    82.532425 
   36400    950.98201   -25076.441    -26059.71   -281.27422   -153.74614   -252.93261   -437.14389    41.266238    41.266238    82.532476 
   36500    956.05078    -25076.41    -26064.92   -329.29571   -73.652523   -502.05634   -412.17827     41.26535     41.26535    82.530701 
   36600    944.81908   -25076.422   -26053.319    116.30394   -343.02416    944.48938   -252.55341    41.263439    41.263439    82.526879 
   36700    950.08074   -25076.429   -26058.766    86.173955    98.772336   -69.268682    229.01821    41.261594    41.261594    82.523189 
   36800    953.05039   -25076.424   -26061.832    166.84819   -364.51424    265.55071    599.50811    41.260394    41.260394    82.520787 
   36900    956.58803   -25076.409   -26065.475   -41.520661   -114.27093    207.33737   -217.62842    41.260386    41.260386    82.520772 
   37000    941.22116   -25076.455   -26049.633    352.85168    290.00501    236.91901    531.63102    41.260628    41.260628    82.521255 
   37100    956.83157   -25076.486   -26065.803   -50.655288   -267.28861   -301.38501    416.70776    41.261748    41.261748    82.523496 
   37200    952.05153   -25076.521   -26060.897   -122.41838     165.2074   -418.19997   -114.26257    41.263417    41.263417    82.526834 
   37300    952.30588   -25076.558   -26061.196   -120.09572   -577.86653   -100.36669    317.94607     41.26498     41.26498     82.52996 
   37400    962.58301   -25076.595    -26071.86   -381.36027   -628.95576   -312.82673   -202.29831    41.266277    41.266277    82.532553 
   37500    943.89781   -25076.691   -26052.636    64.806494   -101.73227    251.07023    45.081523    41.266634    41.266634    82.533268 
   37600    950.74969   -25076.719   -26059.748   -221.19024   -555.24536   -190.78531    82.459951     41.26686     41.26686     82.53372 
   37700    951.13263   -25076.772   -26060.197   -111.46266   -545.39241    405.04046   -194.03603    41.266011    41.266011    82.532023 
   37800    943.28855   -25076.781   -26052.096    135.20632    288.97257   -162.25547    278.90186    41.264761    41.264761    82.529523 
   37900    960.29938   -25076.788   -26069.691   -200.39895   -207.42804   -39.591226   -354.17757    41.263538    41.263538    82.527076 
   38000     953.7535   -25076.864   -26062.999   -19.444966    93.582619    87.843899   -239.76142    41.262048    41.262048    82.524095 
   38100      958.052   -25076.934   -26067.514    30.583531    372.39606   -533.67726     253.0318    41.261479    41.261479    82.522958 
   38200    959.02526   -25077.052   -26068.638   -181.11264    184.42215   -507.14683   -220.61324    41.261631    41.261631    82.523263 
   38300    951.50937   -25077.136   -26060.951    141.91747    195.77928    136.95903    93.014093    41.262677    41.262677    82.525354 
   38400    954.03707   -25077.203   -26063.632   -77.352218    230.90337   -403.73849   -59.221538    41.264448    41.264448    82.528896 
   38500    956.87995   -25077.274   -26066.642   -360.05877   -533.07677   -395.25426   -151.84529    41.266132    41.266132    82.532264 
   38600    939.69778   -25077.361   -26048.963    127.24174   -188.16575    366.79114    203.09984    41.266819    41.266819    82.533638 
   38700    948.77732   -25077.373   -26058.363   -145.50307    7.7765457   -539.39222     95.10646     41.26698     41.26698    82.533961 
   38800    940.42263   -25077.441   -26049.793    147.58657    216.57284    163.66851    62.518361    41.265636    41.265636    82.531273 
   38900    950.21739   -25077.481    -26059.96   -42.844555   -202.52933    158.87127   -84.875609    41.263718    41.263718    82.527436 
   39000    958.46882   -25077.509   -26068.519   -177.60793    26.192946    -517.4023   -41.614439    41.261788    41.261788    82.523577 
   39100    946.29152   -25077.559   -26055.979    262.85088   -646.05965    1037.9476    396.66467    41.260036    41.260036    82.520072 
   39200    940.70876   -25077.604   -26050.252     326.1885    230.77807    480.29245    267.49498     41.25925     41.25925    82.518501 
   39300    949.06224   -25077.646   -26058.931    239.38002    96.155392    582.49833    39.486349    41.259279    41.259279    82.518558 
   39400    950.67345   -25077.646   -26060.597    191.25973    385.54665    84.702088    103.53045    41.260454    41.260454    82.520908 
   39500    938.48535   -25077.666   -26048.015    367.55404    678.80451    35.812968    388.04464    41.262135    41.262135     82.52427 
   39600    942.39566   -25077.703   -26052.094     220.9834    32.259327    152.37015    478.32071     41.26382     41.26382     82.52764 
   39700    941.57034   -25077.711   -26051.249    118.88329    -193.8865    499.35406    51.182307    41.265451    41.265451    82.530902 
   39800    954.64679   -25077.683   -26064.742   -427.65575   -473.39431   -512.66233   -296.91062    41.266591    41.266591    82.533181 
   39900    946.19516   -25077.671   -26055.991   -89.896649   -95.623794   -241.99733    67.931179    41.266326    41.266326    82.532652 
   40000    959.08261   -25077.653   -26069.299   -324.93857   -74.253389    -392.0815   -508.48082    41.264993    41.264993    82.529986 
   40100     957.6062   -25077.652   -26067.771   -115.17795   -51.228224   -13.500281   -280.80535    41.262989    41.262989    82.525978 
   40200    943.37391   -25077.669   -26053.072    309.34226    23.889121    393.33595    510.80172    41.261137    41.261137    82.522273 
   40300    956.75097   -25077.671   -26066.905    35.085689    452.07817   -302.36268   -44.458427    41.260093    41.260093    82.520186 
   40400    958.94085   -25077.663   -26069.161      75.3911   -95.592097   -187.51543    509.28083    41.260337    41.260337    82.520675 
   40500    957.99119   -25077.644   -26068.161    -162.3766   -135.41435    -151.2587   -200.45676    41.261866    41.261866    82.523733 
   40600     940.4038   -25077.642   -26049.974    252.28162    66.138947    448.07635    242.62955    41.263459    41.263459    82.526917 
   40700    950.52303   -25077.589   -26060.384   -127.74921    313.24752   -466.21739   -230.27776    41.265176    41.265176    82.530352 
   40800     942.5655   -25077.589   -26052.157    78.391536    159.38816    -559.2949    635.08135     41.26607     41.26607     82.53214 
   40900     959.3881   -25077.522   -26069.484   -451.07281   -286.81188   -397.11518   -669.29137     41.26652     41.26652     82.53304 
   41000    951.88175   -25077.506   -26061.706   -130.36145    313.07566   -451.74366   -252.41634      41.2654      41.2654    82.530799 
   41100    937.81777   -25077.467   -26047.125    333.75058    67.934959   -64.539925     997.8567    41.263832    41.263832    82.527665 
   41200    943.78596   -25077.429   -26053.259    197.11578    206.55377    72.503732    312.28983    41.262363    41.262363    82.524726 
   41300    951.53354    -25077.37    -26061.21    27.646822    87.607949   -270.60404    265.93655    41.261402    41.261402    82.522803 
   41400    956.01714   -25077.308   -26065.784   -7.5791675   -356.94118    267.30396    66.899718    41.261047    41.261047    82.522093 
   41500    950.39975   -25077.345   -26060.013    92.341062     230.3034    35.808029    10.911759    41.260906    41.260906    82.521813 
   41600    942.98747   -25077.377    -26052.38    175.18941   -95.010592     516.0463    104.53253    41.261724    41.261724    82.523449 
   41700    953.79398   -25077.376   -26063.553   -102.37003   -273.26943    324.48763   -358.32828    41.263101    41.263101    82.526201 
   41800    945.10608   -25077.423   -26054.617    43.989265   -193.85107    426.59272   -100.77385    41.264067    41.264067    82.528133 
   41900    947.66746   -25077.424   -26057.267   -92.839663   -35.173782   -104.74949   -138.59572    41.264872    41.264872    82.529744 
   42000    952.85846   -25077.446   -26062.656   -70.609829   -50.818627   -8.8973978   -152.11346    41.264869    41.264869    82.529737 
   42100    946.49877   -25077.417   -26056.052   -6.8929602     435.1825   -312.69498    -143.1664     41.26499     41.26499    82.529979 
   42200    938.20779   -25077.381   -26047.443     282.3401   -162.05593    517.72693    491.34931    41.264864    41.264864    82.529727 
   42300     950.6643   -25077.323   -26060.264   -117.68991   -29.121122    112.99842   -436.94703    41.264687    41.264687    82.529375 
   42400    959.53944   -25077.322    -26069.44   -227.89168   -690.79917    37.749907    -30.62578    41.263812    41.263812    82.527624 
   42500    943.33368   -25077.344   -26052.706    219.13688    415.10167    364.95566    -122.6467    41.262552    41.262552    82.525105 
   42600    943.01373   -25077.339    -26052.37    374.98427   -14.834848    821.49033    318.29733    41.261818    41.261818    82.523637 
   42700    951.59038   -25077.311   -26061.209   -33.620121    144.48249    331.43563   -576.77848     41.26201     41.26201    82.524021 
   42800    956.71854   -25077.369    -26066.57   -100.11538    -114.4209     -233.495    47.569764    41.261936    41.261936    82.523871 
   42900    952.73206   -25077.437   -26062.516   -6.8707049    250.52285    368.79972   -639.93468    41.262058    41.262058    82.524116 
   43000    948.14897   -25077.507   -26057.847    59.742211    446.25969   -34.027038   -233.00602    41.262535    41.262535     82.52507 
   43100     946.5925    -25077.58   -26056.311    70.323283    490.03998    56.590067    -335.6602    41.263059    41.263059    82.526119 
   43200    947.31431   -25077.627   -26057.104    17.580641   -495.76802    184.87175     363.6382    41.263532    41.263532    82.527064 
   43300    953.89938   -25077.695   -26063.981   -156.19476   -442.10805   -152.24943    125.77321     41.26361     41.26361    82.527219 
   43400    944.51069   -25077.801    -26054.38    147.84921   -93.990885    167.77925    369.75928    41.263197    41.263197    82.526395 
   43500    959.91328   -25077.899   -26070.403   -270.63172   -315.35459   -153.02652   -343.51406     41.26288     41.26288    82.525759 
   43600    945.18163    -25077.98   -26055.252    177.37655    256.11425    248.55684    27.458566    41.262583    41.262583    82.525167 
   43700    946.75907   -25078.046   -26056.949    36.909824    345.12055   -286.79258    52.401502    41.262546    41.262546    82.525092 
   43800    948.06239   -25078.129    -26058.38    14.712071   -341.09122    32.394505    352.83292    41.262497    41.262497    82.524994 
   43900    937.19496   -25078.215    -26047.23    402.25382    570.09983     373.1897    263.47193    41.262575    41.262575     82.52515 
   44000    945.47164   -25078.296   -26055.868    166.79085    489.65538    211.96861   -201.25143    41.262953    41.262953    82.525907 
   44100    953.40558   -25078.328   -26064.103   -241.83746   -197.39822   -279.48602   -248.62815    41.263794    41.263794    82.527588 
   44200    943.40854   -25078.315   -26053.754    78.433183    247.25453   -147.94126    135.98627    41.264349    41.264349    82.528698 
   44300     951.4066   -25078.303   -26062.012   -174.69243   -436.90341   -219.13986    131.96598    41.264282    41.264282    82.528563 
   44400    948.14352   -25078.289   -26058.624   -31.133621   -100.60447   -191.85508    199.05868    41.263553    41.263553    82.527106 
   44500    947.67348   -25078.244   -26058.092    156.54646      339.751    101.62129    28.267092    41.262787    41.262787    82.525575 
   44600    952.16855     -25078.2   -26062.696    36.313915    86.523278   -375.14918    397.56764    41.262271    41.262271    82.524542 
   44700    951.02292   -25078.166   -26061.478   -72.778885    389.40685 -0.017738197   -607.72576    41.261938    41.261938    82.523877 
   44800    939.31063   -25078.126   -26049.328    290.70706    360.59512     506.9421    4.5839636    41.261575    41.261575     82.52315 
   44900    946.57715   -25078.043   -26056.758    63.163069   -40.463831   -71.269218    301.22226    41.262023    41.262023    82.524046 
   45000    956.45747    -25077.97   -26066.901   -208.47299    23.071559   -285.88621    -362.6043     41.26251     41.26251    82.525021 
   45100    946.96756   -25077.896   -26057.015     93.61215   -58.931579    188.10282     151.6652    41.263041    41.263041    82.526082 
   45200    951.85529   -25077.818    -26061.99    77.020394    534.49688    76.534931   -379.97063    41.263975    41.263975    82.527949 
   45300    951.09547   -25077.744   -26061.131   -99.234079   -202.34263   -207.17802    111.81841    41.265293    41.265293    82.530586 
   45400    950.63881   -25077.593   -26060.507   -212.60305   -351.45142   -225.49331   -60.864413    41.266673    41.266673    82.533345 
   45500    944.78613   -25077.437     -26054.3   -139.71285    -50.34166    -219.7271   -149.06979    41.267071    41.267071    82.534143 
   45600    967.42894   -25077.324   -26077.599   -587.22809   -590.53931   -1006.1775   -164.96743     41.26622     41.26622    82.532441 
   45700    947.72734   -25077.283   -26057.188   -74.367353    415.80928   -327.75936   -311.15199    41.263843    41.263843    82.527686 
   45800    945.18331   -25077.176    -26054.45     152.8702    427.94038   -67.636988    98.307215     41.26156     41.26156     82.52312 
   45900    958.55881   -25077.093   -26068.197    5.0554924   -137.90905   -88.078088    241.15361    41.259566    41.259566    82.519131 
   46000     938.5494    -25077.09   -26047.505    402.73998    467.73797    447.18913    293.29284    41.258208    41.258208    82.516416 
   46100    946.18778   -25077.046   -26055.359     285.5875    679.01317    215.54113   -37.791796     41.25855     41.25855      82.5171 
   46200      948.126   -25077.006   -26057.322    123.46195     519.5309   -254.54098    105.39591    41.260131    41.260131    82.520261 
   46300    944.41144   -25076.968   -26053.444    236.61728    288.79064    190.60072    230.46047    41.262135    41.262135    82.524271 
   46400    948.93267   -25076.933   -26058.084   -30.967717   -380.15632   -117.66591    404.91908    41.264331    41.264331    82.528663 
   46500     945.8037   -25076.955   -26054.871   -114.95613   -666.46114    97.982863     223.6099    41.265607    41.265607    82.531213 
   46600    944.31987   -25076.924   -26053.305   -27.943541   -152.97291    198.28432   -129.14203    41.266196    41.266196    82.532392 
   46700    950.13621   -25076.953   -26059.348   -136.58609     -156.729   -281.61672    28.587465    41.265491    41.265491    82.530982 
   46800    944.93602   -25077.006   -26054.025    73.245975    304.01396    -92.71074    8.4347066    41.263776    41.263776    82.527552 
   46900    958.91827   -25076.965   -26068.441    -304.6108   -852.26247   -69.036385     7.466462    41.262416    41.262416    82.524832 
   47000    943.87669   -25076.935   -26052.858    179.05592    64.139305    831.05435   -358.02591    41.261067    41.261067    82.522135 
   47100    949.77259   -25076.902   -26058.921    218.18114    665.56922   -16.354347    5.3285523    41.260368    41.260368    82.520736 
   47200    954.92032   -25076.917   -26064.259    73.318211    739.38779   -825.70048    306.26733    41.260419    41.260419    82.520839 
   47300    941.56068   -25076.985   -26050.513    397.95671    332.55698     464.2042    397.10894    41.260964    41.260964    82.521927 
   47400    954.65545   -25077.001   -26064.069   -27.790986    130.16556   -643.44164    429.90312    41.262878    41.262878    82.525755 
   47500    951.53382   -25077.001   -26060.841   -90.994604     196.9776   -510.53035    40.568945    41.265244    41.265244    82.530487 
   47600    943.91551   -25077.009   -26052.972   -4.8243759    2.9502914   -26.921723    9.4983035    41.266956    41.266956    82.533913 
   47700    943.58494   -25077.042   -26052.663   -16.753376   -145.44036    61.849294    33.330939    41.267458    41.267458    82.534917 
   47800    960.71816   -25077.018   -26070.354   -395.18557   -610.41509   -308.44977   -266.69184    41.267254    41.267254    82.534508 
   47900    951.08424   -25077.061   -26060.436    -133.9017    171.62407   -358.67136   -214.65781    41.265758    41.265758    82.531517 
   48000    942.04096    -25077.08   -26051.105    72.032044    379.94278    82.457788   -246.30443    41.263761    41.263761    82.527522 
   48100    953.39545   -25077.072   -26062.837    23.135133   -230.47317    472.23885   -172.36028    41.261871    41.261871    82.523742 
   48200    953.76319   -25077.033   -26063.178    94.518496    52.190038      474.046   -242.68055    41.260633    41.260633    82.521265 
   48300     951.7704   -25077.018   -26061.103    81.103024   -787.02531     575.5397    454.79468     41.26007     41.26007     82.52014 
   48400    949.61214    -25077.02   -26058.873     105.5945    191.61997    345.02159   -219.85805    41.260096    41.260096    82.520192 
   48500    945.57616   -25077.029   -26054.709    135.93683    693.73083   -207.40665   -78.513681    41.260644    41.260644    82.521288 
   48600    953.14494   -25076.986   -26062.492   -29.591083   -330.61903   -205.14284    446.98862     41.26198     41.26198    82.523961 
   48700     945.5408   -25076.918   -26054.561   -7.5651998   -163.96322   -443.79856    585.06618    41.263657    41.263657    82.527314 
   48800    955.04304   -25076.851   -26064.319   -291.94298   -397.63619   -402.21229   -75.980437    41.265029    41.265029    82.530058 
   48900    942.19875   -25076.835   -26051.023    12.593235   -241.51374    78.221907    201.07154    41.265474    41.265474    82.530947 
   49000    950.82932   -25076.766   -26059.877   -132.27231   -403.82172   -222.52866    229.53345    41.265445    41.265445     82.53089 
   49100    945.99028    -25076.74   -26054.849    102.22418   -253.24557    205.10925    354.80886    41.264403    41.264403    82.528806 
   49200    946.68228   -25076.665   -26055.489    10.620406    237.63679    144.42712   -350.20269    41.263497    41.263497    82.526995 
   49300    943.41811   -25076.586   -26052.035     195.6318     250.0068     246.6698    90.218803    41.262503    41.262503    82.525005 
   49400    953.34522   -25076.514   -26062.227    47.677731    65.730975    247.84117   -170.53896    41.261886    41.261886    82.523772 
   49500    958.19016    -25076.41   -26067.133   -65.638565    296.99384   -511.51096    17.601424    41.262052    41.262052    82.524104 
   49600    945.90639   -25076.384   -26054.406    202.96217    454.52122     50.66469    103.70059    41.262354    41.262354    82.524709 
   49700     948.5209   -25076.374   -26057.099    82.065344   -117.90643    162.60965    201.49282    41.263049    41.263049    82.526099 
   49800    945.35134   -25076.328   -26053.776    9.6156992    728.08433   -97.811133    -601.4261    41.264132    41.264132    82.528264 
   49900    950.23053   -25076.241   -26058.734   -56.840716     -165.059   -207.53812    202.07498    41.265359    41.265359    82.530717 
   50000     939.3936   -25076.256   -26047.544    56.244407    228.36459    194.42749   -254.05886    41.265748    41.265748    82.531496 
Loop time of 1474.92 on 1 procs for 50000 steps with 8000 atoms

Pair  time (%) = 1333.93 (90.4412)
Neigh time (%) = 99.8811 (6.77199)
Comm  time (%) = 8.66743 (0.587656)
Outpt time (%) = 0.640459 (0.0434234)
Other time (%) = 31.7955 (2.15575)

Nlocal:    8000 ave 8000 max 8000 min
Histogram: 1 0 0 0 0 0 0 0 0 0
Nghost:    9113 ave 9113 max 9113 min
Histogram: 1 0 0 0 0 0 0 0 0 0
Neighs:    294908 ave 294908 max 294908 min
Histogram: 1 0 0 0 0 0 0 0 0 0

Total # of neighbors = 294908
Ave neighs/atom = 36.8635
Neighbor list builds = 5000
Dangerous builds = 0
unfix		1

# Melt half the system
region  liquid block INF INF INF INF INF ${nzhalf}
region  liquid block INF INF INF INF INF 10
group	liquid_group region liquid
4032 atoms in group liquid_group

# Heat up one side to Tmelt to make sure it is melted
fix 2 liquid_group npt temp ${Tmelt} ${Tmelt} 1 z 0 0 10 drag 1.0
fix 2 liquid_group npt temp 2000 ${Tmelt} 1 z 0 0 10 drag 1.0
fix 2 liquid_group npt temp 2000 2000 1 z 0 0 10 drag 1.0
run		${eqsteps}
run		50000
Memory usage per processor = 5.95825 Mbytes
Step Temp TotEng PotEng Press Pxx Pyy Pzz Lx Ly Lz 
   50000     939.3936   -25076.256   -26047.544    56.244407    228.36459    194.42749   -254.05886    41.265748    41.265748    82.531496 
   50100    938.86478   -25073.863   -26044.604    126.78928   -201.39233   -55.968229    637.72839    41.265748    41.265748      82.5315 
   50200     953.5296   -25068.296     -26054.2    33.400233   -336.16124    -39.55318    475.91512    41.265748    41.265748    82.531764 
   50300    947.06146   -25062.789   -26042.005     455.3235    389.03735    511.11772    465.81542    41.265748    41.265748    82.532375 
   50400    949.03668   -25057.506   -26038.765    476.62702    609.31156    181.50744    639.06205    41.265748    41.265748    82.533309 
   50500    950.30312   -25051.544   -26034.112     622.4624     666.5949    48.939871    1151.8524    41.265748    41.265748    82.534592 
   50600    957.66044   -25045.251   -26035.426    583.71606    453.16992    593.67658    704.30168    41.265748    41.265748    82.536329 
   50700    951.72794   -25038.797   -26022.838    964.87522    857.15806     707.0536     1330.414    41.265748    41.265748    82.538508 
   50800    963.47726   -25032.209   -26028.398      881.414    698.81339    535.88793    1409.5407    41.265748    41.265748    82.541225 
   50900    965.44249   -25025.591   -26023.812    983.55886    855.55006    807.52414    1287.6024    41.265748    41.265748    82.544549 
   51000    960.64806   -25018.819   -26012.083    1274.8561    1215.5653    931.07472    1677.9283    41.265748    41.265748    82.548512 
   51100    967.10606   -25012.017   -26011.958    1355.2415    1483.8895    1005.7637    1576.0712    41.265748    41.265748    82.553192 
   51200    970.25127   -25005.142   -26008.335    1418.0504    1118.9939    1072.0141    2063.1432    41.265748    41.265748     82.55857 
   51300    975.38663   -24998.255   -26006.758    1440.1022    1596.1619    1204.5592    1519.5853    41.265748    41.265748    82.564773 
   51400    974.55523   -24991.286   -25998.929    1613.0041    1674.4911    1186.1776    1978.3437    41.265748    41.265748     82.57184 
   51500    989.96457   -24984.294    -26007.87     1360.525    1210.0787    1220.6998    1650.7964    41.265748    41.265748    82.579823 
   51600    987.29135   -24977.264   -25998.076    1611.4583    1635.7678    1402.1407    1796.4663    41.265748    41.265748     82.58867 
   51700    993.22546   -24970.185   -25997.132     1485.221    1520.7805    1330.4452    1604.4372    41.265748    41.265748    82.598327 
   51800    983.11088   -24963.086   -25979.575    2028.7657    2115.4231    1593.0657    2377.8082    41.265748    41.265748    82.608708 
   51900     993.6726   -24955.988   -25983.398    1898.2797    2383.8088    1323.6777    1987.3527    41.265748    41.265748    82.620004 
   52000     1000.038   -24948.797   -25982.788    1894.6697    1971.6486    1600.7093    2111.6511    41.265748    41.265748    82.632199 
   52100    1003.5152   -24941.605   -25979.192    1922.0723    2142.1501    1485.6086    2138.4582    41.265748    41.265748    82.645305 
   52200    1012.4359   -24934.365   -25981.175    1713.7204    1691.6252    1664.7978    1784.7383    41.265748    41.265748    82.659332 
   52300    1010.3943   -24927.138   -25971.837     1973.176    2119.9369    1753.4752    2046.1159    41.265748    41.265748     82.67413 
   52400     1009.065   -24919.804   -25963.129    2189.9542    2248.1327     2117.004     2204.726    41.265748    41.265748     82.68976 
   52500     1012.239   -24912.492   -25959.098    2172.4255    2100.8003    1967.4358    2449.0403    41.265748    41.265748    82.706222 
   52600    1024.3045    -24905.11   -25964.192    1859.4935    2108.2919    1592.3947    1877.7939    41.265748    41.265748    82.723538 
   52700    1016.8083   -24897.774   -25949.104    2094.1411    2270.0359    1798.3048    2214.0826    41.265748    41.265748    82.741508 
   52800    1018.2028   -24890.349   -25943.122    2261.4512    2687.3528    2007.4826    2089.5181    41.265748    41.265748    82.760275 
   52900    1024.4846   -24882.914   -25942.182    2155.9395    2210.3228     1927.201    2330.2948    41.265748    41.265748    82.779778 
   53000    1025.0404   -24875.458     -25935.3    2266.5983    2200.6305    2309.4836    2289.6808    41.265748    41.265748    82.799982 
   53100    1028.8458   -24867.973    -25931.75    2144.2627      2330.99    1742.9963    2358.8017    41.265748    41.265748    82.820885 
   53200    1034.5626   -24860.481   -25930.169     2031.579    2144.4558     1791.648    2158.6333    41.265748    41.265748    82.842467 
   53300    1043.7671   -24852.948   -25932.153    1848.3171    1824.1619    1644.1454    2076.6439    41.265748    41.265748    82.864625 
   53400    1040.6758   -24845.369   -25921.377    2110.2479    2424.9801    1866.0595    2039.7042    41.265748    41.265748    82.887406 
   53500    1045.5778   -24837.748   -25918.826    2085.4165    1709.9292     2569.262    1977.0584    41.265748    41.265748    82.910728 
   53600    1057.7893   -24830.073   -25923.777    1815.0224    2040.6132    1712.5715    1691.8825    41.265748    41.265748    82.934468 
   53700    1048.6738   -24822.419   -25906.698    2048.9269    2138.4654     2215.582    1792.7333    41.265748    41.265748    82.958524 
   53800    1052.7001   -24814.742   -25903.183    2018.0885    2296.2803    1557.5355    2200.4498    41.265748    41.265748    82.982971 
   53900    1056.2567   -24807.071   -25899.189    1911.8225    1631.4655    1801.9846    2302.0174    41.265748    41.265748    83.007832 
   54000    1052.3302   -24799.332   -25887.391    2026.5374    2044.2959    1911.4987    2123.8176    41.265748    41.265748    83.033105 
   54100    1069.5612   -24791.601   -25897.476    1681.2401    2271.9204    1841.2297    930.57027    41.265748    41.265748    83.058679 
   54200    1063.6514   -24783.871   -25883.635    1922.4362    2038.4529    1780.5158    1948.3399    41.265748    41.265748    83.084362 
   54300    1077.2215   -24775.998   -25889.793    1653.7893    1831.4935    2124.0988    1005.7757    41.265748    41.265748    83.110317 
   54400    1070.3269   -24768.193   -25874.859    1798.1976    2112.5144    1967.8169    1314.2616    41.265748    41.265748    83.136292 
   54500    1078.6856   -24760.279   -25875.588    1687.7628    1952.2076    1752.2198    1358.8609    41.265748    41.265748    83.162272 
   54600    1072.8246   -24752.448   -25861.697    1692.9939     1564.537     1557.177    1957.2677    41.265748    41.265748    83.188292 
   54700    1074.0213   -24744.584    -25855.07    1772.5047    1652.1166    2075.1501    1590.2475    41.265748    41.265748    83.214599 
[...]
  336300    998.99935   -24942.341   -25975.258    331.58534     74.17657    34.703394    885.87606    41.333008    41.333008    82.592268 
  336400    995.05535   -24942.362   -25971.201    24.850347   -287.38804    191.07206    170.86702    41.332664    41.332664    82.642155 
  336500    995.26141   -24942.352   -25971.404   -344.22373   -530.15038    -75.78673   -426.73409    41.332207    41.332207    82.692565 
  336600    1008.8762   -24942.356   -25985.486   -634.13523   -771.52296   -666.62404    -464.2587    41.331563    41.331563    82.693119 
  336700     1015.743   -24942.396   -25992.625   -343.26922   -368.70101   -212.45609   -448.65057    41.330777    41.330777    82.637028 
  336800    996.29978   -24942.362   -25972.488    741.18227     385.8537    698.50344    1139.1897    41.330076    41.330076    82.569811 
  336900      1006.56   -24942.368   -25983.103    163.74856    220.61835    54.110746    216.51657    41.329601    41.329601    82.585705 
  337000    1004.7126   -24942.373   -25981.198   -61.744026    106.00997   -204.23314   -87.008903    41.329291    41.329291     82.62389 
  337100    1003.1893   -24942.375   -25979.624   -218.44297   -337.31497   -31.971433    -286.0425    41.329021    41.329021    82.657518 
  337200    993.32438   -24942.366   -25969.415   -20.584791   -542.97356    423.32853    57.890654    41.328693    41.328693    82.672026 
  337300    1010.2772   -24942.376   -25986.954   -453.78696   -722.59122   -699.19258    60.422918     41.32825     41.32825    82.675031 
  337400    998.73973   -24942.373   -25975.021   -154.53075     15.44264   -457.06642   -21.968466    41.327662    41.327662     82.66852 
  337500    1009.7047   -24942.376   -25986.362   -220.80809   -462.31879     50.76547   -250.87095    41.327041    41.327041    82.650258 
  337600    1009.4534   -24942.375   -25986.101    13.975893   -509.83898     134.0264    417.74026    41.326449    41.326449     82.62861 
  337700    1001.2826   -24942.373   -25977.651    152.04022   -139.62346    389.84024    205.90387    41.325906    41.325906    82.637343 
  337800    999.63747    -24942.39   -25975.967   -196.90996   -486.01446   -13.958678   -90.756752     41.32541     41.32541    82.679056 
  337900    996.63976   -24942.381   -25972.859    -347.0695   -749.87029   -123.18582   -168.15239    41.324795    41.324795    82.709883 
  338000    1014.7348   -24942.406   -25991.593   -577.28717    -968.3727   -307.02219   -456.46663    41.324069    41.324069    82.693719 
  338100    1011.4523   -24942.427    -25988.22    90.643402   -100.18721    124.32773    247.78968    41.323355    41.323355    82.622456 
  338200    1006.5808   -24942.399   -25983.156    581.61768    1033.7995     192.2805    518.77308     41.32278     41.32278    82.564754 
  338300    1005.7959   -24942.405    -25982.35    537.39923     318.5412    681.20918    612.44733    41.322554    41.322554     82.57143 
  338400    1000.0782   -24942.434   -25976.467    309.29593    724.64711   -218.63342     421.8741    41.322586    41.322586    82.635328 
  338500    993.17467    -24942.44   -25969.335   -184.66475    174.44275   -743.12089    14.683886    41.322654    41.322654    82.718763 
  338600    1002.2081   -24942.418   -25978.653    -780.1555   -1069.3832   -648.69614   -622.38717    41.322501    41.322501    82.748444 
  338700    994.70813   -24942.468   -25970.949    38.923674    697.18294   -667.52336    87.111438     41.32206     41.32206     82.68872 
  338800    1014.2886   -24942.465   -25991.191   -31.548607    -424.6224    580.58654   -250.60996    41.321615    41.321615    82.607972 
  338900    1014.2056   -24942.439   -25991.079    396.35916    174.92042    476.84295    537.31412    41.321383    41.321383    82.570086 
  339000    1006.2692   -24942.449   -25982.883    566.45682    543.37083    656.22276    499.77686    41.321424    41.321424    82.591847 
  339100    1006.8449   -24942.474   -25983.504    39.624972    172.38002   -81.121669    27.616568    41.321711    41.321711    82.647917 
  339200    1006.6836   -24942.463   -25983.325   -397.18888   -129.11963   -881.95237   -180.49464    41.321976    41.321976    82.707624 
  339300    1001.4756   -24942.449   -25977.927   -510.45137    -320.7665   -625.41312   -585.17448    41.322029    41.322029    82.734231 
  339400    1007.4397   -24942.473   -25984.117   -488.53187   -598.77601   -732.72969   -134.08991    41.321823    41.321823    82.698927 
  339500    999.03994   -24942.467   -25975.427    213.84207   -178.14435    555.92221    263.74835    41.321449    41.321449    82.646847 
  339600    1012.5755   -24942.469   -25989.423    252.94592    534.92971    382.34309   -158.43503    41.321208    41.321208    82.608125 
  339700      992.032   -24942.463   -25968.176    957.41429    1340.6158    671.39449    860.23264    41.321269    41.321269    82.580945 
  339800    1012.4956   -24942.472   -25989.343    261.09548   -108.56136     745.8368    146.01101    41.321672    41.321672    82.602252 
  339900      1018.57   -24942.479   -25995.632   -224.85569   -100.93006    52.931718   -626.56872    41.322224    41.322224    82.646449 
  340000    1002.3666   -24942.468   -25978.867   -37.082865    64.229824   -17.952795   -157.52562    41.322783    41.322783    82.660365 
  340100    1009.5293   -24942.466   -25986.271    -151.2743   -481.27925    104.07239   -76.616049     41.32331     41.32331     82.66478 
  340200    1013.0121   -24942.472   -25989.878   -299.30904   -521.85269    94.461864   -470.53629    41.323737    41.323737    82.657076 
  340300    997.38302   -24942.469   -25973.715      272.995    337.92663   -49.852661    530.91103    41.324103    41.324103    82.644027 
  340400    1003.4413   -24942.476   -25979.986    106.30437   -240.02619    436.59419    122.34511    41.324446    41.324446    82.636751 
  340500    1021.2537   -24942.475   -25998.403   -338.12989   -160.57569   -255.77781   -598.03616    41.324786    41.324786    82.634778 
  340600    993.70884   -24942.467   -25969.914    331.74272   -120.66719    481.61359    634.28177    41.325111    41.325111    82.633499 
  340700    1012.9654   -24942.476   -25989.833   -344.92144   -990.81133    120.07599   -164.02898    41.325356    41.325356    82.659072 
  340800    995.70424   -24942.472   -25971.983   -99.049427    290.85382   -251.20512   -336.79698    41.325455    41.325455    82.668343 
  340900    1010.2746    -24942.48   -25987.055   -254.60761   -324.30591   -395.20856   -44.308369    41.325494    41.325494    82.646199 
  341000     1004.059   -24942.472    -25980.62    15.608954   -329.34792    118.85198     257.3228    41.325466    41.325466    82.622369 
  341100    992.97514   -24942.476   -25969.165    277.04192    446.46096   -117.83346    502.49827    41.325432    41.325432    82.635907 
  341200    998.43512   -24942.471   -25974.805   -66.107357    2.3896672    284.74589   -485.45763    41.325351    41.325351    82.672828 
  341300    997.15133    -24942.48   -25973.487    23.965334    633.96516   -251.43276    -310.6364    41.325237    41.325237    82.670792 
  341400    1009.5922    -24942.48    -25986.35   -87.168029   -89.159466   -240.80483    68.460211    41.325129    41.325129     82.64661 
  341500    1005.6274    -24942.48   -25982.251    86.698924    364.94113    65.408572   -170.25293    41.324952    41.324952    82.631503 
  341600    1014.9883   -24942.478   -25991.927   -19.102771   -237.89092    44.208596    136.37401    41.324899    41.324899    82.622494 
  341700    1005.7064   -24942.479   -25982.331    59.817027    121.84116   -3.0499128    60.659838    41.324902    41.324902    82.644516 
  341800    1004.1931   -24942.478   -25980.765   -90.643938   -154.21632     202.3454   -320.06089      41.3249      41.3249    82.665138 
  341900    1001.7034    -24942.48   -25978.194   -68.801054   -106.77002   -257.33783    157.70469    41.324897    41.324897     82.65231 
  342000     999.6065   -24942.479   -25976.024    331.93037    90.018455    324.00891    581.76374    41.324826    41.324826    82.629607 
  342100    1002.5487   -24942.478   -25979.065    279.03232    677.84267   -56.604176    215.85848    41.324795    41.324795    82.615642 
  342200    1011.5635   -24942.481   -25988.389    95.497454    328.03567   -167.76342    126.22011    41.324928    41.324928    82.612321 
  342300    1016.7252   -24942.496   -25993.741   -246.30465    224.68233    -476.7848   -486.81149     41.32514     41.32514    82.641051 
  342400    999.64604   -24942.487   -25976.073   -187.61385    63.882799   -243.84992   -382.87444    41.325274    41.325274    82.672688 
  342500    997.83927   -24942.479   -25974.197   -202.82823    472.32731    -572.1458   -508.66621    41.325314    41.325314    82.682368 
  342600    1007.0158   -24942.492   -25983.697   -192.31325    116.06917   -792.07328    99.064356    41.325223    41.325223     82.65508 
  342700     1007.358   -24942.485   -25984.045   -57.113139   -72.547786   -378.43205    279.64042    41.325102    41.325102    82.634518 
  342800    1012.5015   -24942.485   -25989.363   -70.836381   -56.174382   -534.36902    378.03426    41.324991    41.324991    82.623298 
  342900     1017.131   -24942.493   -25994.158   -273.23422   -218.65721   -274.75773    -326.2877    41.324851    41.324851    82.637824 
  343000    996.48848    -24942.49   -25972.811    32.948558   -310.96735    14.664358    395.14867    41.324714    41.324714    82.669201 
  343100    1007.4886    -24942.49   -25984.185   -477.66557   -339.21236   -427.75673   -666.02764    41.324512    41.324512    82.701927 
  343200    1001.8504   -24942.495    -25978.36   -210.96114   -253.82371   -54.233972   -324.82575    41.324178    41.324178    82.681447 
  343300    998.93673   -24942.494   -25975.347    130.78521    107.16344   -420.80593    705.99812    41.323762    41.323762    82.645624 
  343400    1010.1309   -24942.496   -25986.923   -77.110886     141.9196    318.80852   -692.06077    41.323292    41.323292    82.658055 
  343500    1003.9749     -24942.5   -25980.562    100.75632    393.71002   -183.20791    91.766866    41.322915    41.322915    82.639502 
  343600    1005.0935   -24942.498   -25981.716    304.31482    21.625242    46.820484    844.49875    41.322684    41.322684    82.614621 
  343700    1008.2151     -24942.5   -25984.946    55.883969    76.858736    8.5713511     82.22182    41.322557    41.322557    82.635466 
  343800    999.56468   -24942.501   -25976.003   -85.975989    264.58289    341.42315   -863.93401    41.322441    41.322441    82.676334 
  343900    1006.6488   -24942.499   -25983.326   -265.16898    -827.1135    143.66568   -112.05911    41.322328    41.322328    82.674957 
  344000    1008.0914   -24942.503   -25984.821   -194.48967    61.962543   -196.61959   -448.81195    41.322057    41.322057    82.670432 
  344100    1009.2326   -24942.499   -25985.997   -218.12459   -333.36591    19.907054    -340.9149    41.321774    41.321774     82.66093 
  344200    1005.4038     -24942.5    -25982.04   -42.576178     105.3412   -349.34985    116.28012    41.321503    41.321503     82.64774 
  344300    992.97637   -24942.502   -25969.191    404.62026    311.45794    506.98702    395.41582    41.321207    41.321207     82.65498 
  344400    1007.5566   -24942.505    -25984.27   -221.31578    64.004831   -402.31191   -325.64027    41.320956    41.320956    82.675186 
  344500    997.66795   -24942.498   -25974.039      38.9848    181.41412    340.71911   -405.17883    41.320699    41.320699    82.678703 
  344600    1006.6644    -24942.51   -25983.353    16.104955   -158.82019    298.20073   -91.065673     41.32045     41.32045    82.648032 
  344700    1011.3005   -24942.511   -25988.147    315.62144    241.59817    450.90089    254.36527    41.320265    41.320265    82.610904 
  344800    1011.8225   -24942.509   -25988.685    213.11006    448.86178    394.15847   -203.69008    41.320267    41.320267    82.602427 
  344900    1020.1167   -24942.513   -25997.264    -70.19255   -365.38195    56.472447    98.331848    41.320498    41.320498    82.616061 
  345000    1003.9151   -24942.522   -25980.522    81.156578   -279.00528    0.2855089     522.1895    41.320822    41.320822    82.654689 
  345100     997.9774   -24942.537   -25974.398   -398.78392   -674.80517   -261.53704   -260.00954    41.321068    41.321068    82.720389 
  345200    1009.1492    -24942.52   -25985.931   -946.61186   -1177.3681   -842.46993   -819.99757    41.321045    41.321045    82.752267 
  345300    1001.5478   -24942.541   -25978.093   -420.57641    196.05079   -607.82414   -849.95588    41.320675    41.320675    82.718923 
  345400    1005.9897   -24942.543   -25982.688    45.523296    515.77993    -463.8851    84.675061     41.32018     41.32018    82.648685 
  345500    1013.7818    -24942.54   -25990.742    318.65293    349.99232    74.855344    531.11111    41.319771    41.319771     82.60176 
  345600    1015.5639   -24942.535   -25992.579    213.33225    264.26559     754.0863   -378.35513    41.319628    41.319628    82.593467 
  345700    1011.6851    -24942.54   -25988.573    265.99043    633.11383    143.75074    21.106728    41.319812    41.319812    82.598776 
  345800    1012.0935   -24942.543   -25988.999    154.95752    39.055132    288.24638    137.57106    41.320184    41.320184    82.630601 
  345900     1004.042    -24942.54   -25980.671   -77.599709   -186.16536    162.41597   -209.04974    41.320636    41.320636    82.673963 
  346000    1006.6562   -24942.538   -25983.373   -391.49241   -483.09703   -384.32231   -307.05788    41.320952    41.320952    82.688886 
  346100    1006.4609   -24942.539   -25983.171   -279.53532    100.35977   -638.79157   -300.17415    41.321061    41.321061    82.682623 
  346200    1005.5738   -24942.549   -25982.264   -23.823465    64.379682    451.00151   -586.85159     41.32108     41.32108     82.65835 
  346300    1002.3559    -24942.54   -25978.928    305.81391   -92.642124     610.7683    399.31555    41.321156    41.321156    82.622901 
  346400    1011.0784   -24942.542   -25987.948    117.27315    157.98435    294.34685   -100.51174    41.321307    41.321307      82.6282 
  346500    1008.4932    -24942.54   -25985.273    95.272577   -97.818806    206.87303     176.7635    41.321601    41.321601    82.635924 
  346600    1012.1188   -24942.544   -25989.026   -16.674141    12.995903   -170.16503     107.1467    41.322022    41.322022    82.635874 
  346700    998.41157   -24942.542   -25974.852    236.23537   -112.71509     722.4141    99.007114    41.322511    41.322511    82.631556 
  346800    1015.3386   -24942.544   -25992.355   -95.422881    57.091302   -222.04014    -121.3198    41.323043    41.323043    82.634172 
  346900    996.48089   -24942.539   -25972.853     239.9217    411.46588    521.77919   -213.47998    41.323487    41.323487    82.644296 
  347000    1000.6022   -24942.542   -25977.117     15.32023   -91.745137     619.7665   -482.06067    41.323908    41.323908    82.649095 
  347100    1004.0054   -24942.542   -25980.635   -6.1426871    31.886538    306.39654   -356.71114    41.324284    41.324284    82.648625 
  347200     1008.513   -24942.549   -25985.303   0.61299525   -155.36641    389.01225   -231.80685    41.324689    41.324689    82.634646 
  347300    998.02673   -24942.548    -25974.46    487.70687    587.82911    535.06438    340.22712    41.325134    41.325134    82.599622 
  347400    1013.3476    -24942.55   -25990.303    152.07558   -25.613649    273.56247    208.27792    41.325728    41.325728    82.588114 
  347500    1010.0365   -24942.564   -25986.893    56.985583    14.468555    175.24845   -18.760261    41.326392    41.326392    82.616416 
  347600    1007.2765   -24942.562   -25984.037   -253.40065    59.086295   -344.60622   -474.68202    41.327029    41.327029    82.660607 
  347700    1007.8862   -24942.555   -25984.661   -541.57906    43.011921   -573.50086   -1094.2482    41.327483    41.327483    82.685182 
  347800    1003.2771   -24942.568   -25979.908   -63.720874    518.45203   -170.43169   -539.18297    41.327703    41.327703    82.662086 
  347900    1003.5522   -24942.568   -25980.193    231.00882    415.80419    167.33131    109.89096    41.327898    41.327898    82.606424 
  348000    1003.2685   -24942.561   -25979.892     625.5805    491.14598    724.43011    661.16542     41.32821     41.32821    82.564251 
  348100    1006.6482   -24942.565    -25983.39    538.80833    1327.6596     396.4356   -107.67025    41.328776    41.328776    82.557395 
  348200     996.6783   -24942.566   -25973.083    805.70591    1064.6185     1553.365   -200.86583    41.329712    41.329712    82.552843 
  348300    1011.5762    -24942.58   -25988.501     230.4998   -303.01861    768.77409    225.74393    41.330926    41.330926    82.561363 
  348400    999.04474    -24942.59   -25975.554    216.52883   -170.69541   -57.152879    877.43479     41.33216     41.33216    82.603808 
  348500    1009.4554   -24942.592   -25986.321   -619.62214   -253.13868   -892.00409   -713.72363    41.333195    41.333195    82.670816 
  348600    992.89554   -24942.577   -25969.183   -394.27207   -102.04832   -322.42182   -758.34606    41.333856    41.333856    82.678328 
  348700    1007.5527   -24942.602   -25984.363   -269.27422   -72.858827   -452.34398   -282.61984    41.334209    41.334209     82.63063 
  348800    1000.2515   -24942.601   -25976.813    368.74072    395.24595    167.89086    543.08533    41.334407    41.334407    82.565816 
  348900    999.74282   -24942.586   -25976.272    529.17613     495.0576    647.94664    444.52414    41.334687    41.334687     82.54517 
  349000    1001.0469   -24942.601   -25977.635    365.06636    86.493256    707.69195    301.01388    41.335112    41.335112    82.567018 
  349100    996.57808   -24942.619   -25973.032    129.12797    101.02733   -279.16106    565.51764    41.335575    41.335575    82.612138 
  349200    1002.4018   -24942.598   -25979.033   -419.61227   -418.98133   -566.79138   -273.06409    41.335831    41.335831    82.663162 
  349300    994.85029   -24942.606   -25971.234   -271.79372   -25.510079   -375.59291   -414.27817    41.335831    41.335831    82.650386 
  349400    1004.9322   -24942.641   -25981.693    164.52252    559.77819    365.02915   -431.23978    41.335677    41.335677    82.587506 
  349500    1014.4638   -24942.616   -25991.523    350.03234    166.73382   -32.070502    915.43369    41.335671    41.335671     82.52386 
  349600    1002.0476   -24942.619   -25978.688    674.28733    793.81874    496.82197    732.22128    41.335873    41.335873    82.528942 
  349700    1001.9483   -24942.678   -25978.645   -25.486115    281.17643   -377.86933    20.234549    41.336259    41.336259    82.605186 
  349800    998.36304   -24942.654   -25974.913   -591.08235   -902.09881   -332.61992   -538.52832    41.336523    41.336523    82.695498 
  349900    1001.0081   -24942.646   -25977.641   -1118.0101   -1496.3228   -870.87622   -986.83115    41.336309    41.336309    82.744445 
  350000    1010.7309   -24942.664   -25987.711   -1228.9072   -1231.4355   -1563.5493   -891.73683    41.335539    41.335539    82.725342 
Loop time of 5795.26 on 1 procs for 200000 steps with 8000 atoms

Pair  time (%) = 5244.91 (90.5035)
Neigh time (%) = 395.487 (6.82432)
Comm  time (%) = 32.1143 (0.554147)
Outpt time (%) = 2.48727 (0.042919)
Other time (%) = 120.26 (2.07515)

Nlocal:    8000 ave 8000 max 8000 min
Histogram: 1 0 0 0 0 0 0 0 0 0
Nghost:    8422 ave 8422 max 8422 min
Histogram: 1 0 0 0 0 0 0 0 0 0
Neighs:    293224 ave 293224 max 293224 min
Histogram: 1 0 0 0 0 0 0 0 0 0

Total # of neighbors = 293224
Ave neighs/atom = 36.653
Neighbor list builds = 20000
Dangerous builds = 0
unfix		4
