LAMMPS (13 Jan 2014)
dimension       3
boundary        p p p
units           metal

atom_style	atomic
neighbor	0.3 bin
neigh_modify	every 10 delay 0 check no

# Number of steps for the equilibration steps
variable        eqsteps equal 50000

# Number of steps to run our NPH simulation
variable        simsteps equal 200000

# Our trial melting temperature
variable	T equal 950.0
variable	T2 equal 2*${T}
variable	T2 equal 2*950

# Some high temperature to melt the crystal
variable	Tmelt equal 2000.0

#System size
variable	nx equal 4
variable	ny equal 4
variable	nz equal 20
variable	nzhalf equal ${nz}*0.5
variable	nzhalf equal 20*0.5
variable	a equal 4.050
variable	length equal ${nz}*${a}
variable	length equal 20*${a}
variable	length equal 20*4.05

lattice		fcc ${a}
lattice		fcc 4.05
Lattice spacing in x,y,z = 4.05 4.05 4.05

region         box block 0 ${nx} 0 ${ny} 0 ${nz}
region         box block 0 4 0 ${ny} 0 ${nz}
region         box block 0 4 0 4 0 ${nz}
region         box block 0 4 0 4 0 20
create_box     1 box
Created orthogonal box = (0 0 0) to (16.2 16.2 81)
  1 by 1 by 1 MPI processor grid
create_atoms   1 box
Created 1280 atoms

mass		1 26.9815

pair_style	eam/alloy
pair_coeff	* * Al_potential.alloy Al

velocity	all create ${T2} 1337
velocity	all create 1900 1337

# Create a dump file. This can be visualized with
# e.g. OVITO (http://www.ovito.org/)
dump		id all atom 1000 atomsdump

# 1 fs timestep
timestep	0.001
thermo_style	custom step temp etotal pe press pxx pyy pzz lx ly lz

# output every 100th timestep
thermo		100

# Equilibration the whole system to the trial melting temperature
fix		1 all npt temp ${T} ${T} 1 iso 0 0 3 drag 1.0
fix		1 all npt temp 950 ${T} 1 iso 0 0 3 drag 1.0
fix		1 all npt temp 950 950 1 iso 0 0 3 drag 1.0
run		${eqsteps}
run		50000
Memory usage per processor = 3.13549 Mbytes
Step Temp TotEng PotEng Press Pxx Pyy Pzz Lx Ly Lz 
       0         1900   -4034.2452   -4348.3603    11719.381    11282.889    11597.639    12277.615         16.2         16.2           81 
     100    900.92964   -4037.4756   -4186.4206    30415.579    31388.015    30766.206    29092.517    16.236067    16.236067    81.180335 
     200    898.91146   -4042.8308   -4191.4422    16548.682    16742.636    16079.872     16823.54    16.334158    16.334158    81.670791 
     300    866.98132    -4045.243   -4188.5756    2828.4963    3267.3383    2566.4528    2651.6977    16.446086    16.446086    82.230432 
     400    859.46998   -4044.3916   -4186.4823   -7068.0705   -7505.3576   -6818.1883   -6880.6656    16.529361    16.529361    82.646804 
     500    863.55329   -4042.8125   -4185.5784   -11831.144   -12087.726   -13101.225   -10304.482    16.571637    16.571637    82.858184 
     600    843.46066   -4041.8527   -4181.2967   -11749.918   -11500.998    -11451.83   -12296.926    16.577703    16.577703    82.888513 
     700    843.93121   -4041.4927   -4181.0146   -9114.6812   -9704.4017   -8560.4202   -9079.2217    16.556904    16.556904    82.784522 
     800     852.1208   -4041.1894   -4182.0652   -4998.8235   -4680.3255   -5430.1638   -4885.9812    16.519811    16.519811    82.599054 
     900     896.7159   -4040.4775    -4188.726   -871.72561   -1382.6704   -1051.8676   -180.63876    16.477975    16.477975    82.389875 
    1000     864.1784   -4039.3678    -4182.237    4603.6118    5065.1074    4726.7924    4018.9357    16.442621    16.442621    82.213106 
    1100    914.48394   -4038.2019   -4189.3878     6135.432    6828.3917    5052.0521    6525.8522    16.421963    16.421963    82.109813 
    1200    895.60989   -4037.3524    -4185.418    7238.4914    6484.9812    6734.5325    8495.9606    16.418004    16.418004    82.090021 
    1300    890.84377   -4036.8369   -4184.1145    5919.1728    5205.3365    5406.2271    7145.9548    16.429979    16.429979    82.149893 
    1400    888.67965   -4036.4298   -4183.3496    3208.3757     3889.943    2701.8165    3033.3677    16.452776    16.452776    82.263879 
    1500    878.21415   -4035.9029   -4181.0925    377.49127   -214.33113    1383.5507   -36.745733    16.479403    16.479403    82.397015 
    1600    887.84793    -4035.184   -4181.9663   -2766.9294   -3343.7096   -2204.3667    -2752.712    16.502635    16.502635    82.513174 
    1700    881.13049   -4034.4125   -4180.0842   -4120.8012   -3955.1642   -4937.9032   -3469.3363    16.516892    16.516892    82.584461 
    1800    884.93746   -4033.7063   -4180.0074   -4360.1442   -4590.1545   -3992.4646   -4497.8135    16.520027    16.520027    82.600137 
    1900    888.02279   -4033.0653   -4179.8765   -3461.4151   -3856.4811   -4066.3895   -2461.3746    16.513076    16.513076    82.565382 
    2000    895.39193   -4032.4479   -4180.4774    -1992.181    -2043.848   -1816.7523   -2115.9426    16.499121    16.499121    82.495604 
    2100    891.95171   -4031.7538   -4179.2146     452.3079    1212.0837   -337.81653    482.65658    16.483142    16.483142    82.415711 
    2200    910.93522   -4031.0168    -4181.616    1638.5519    1995.3299    1782.6454    1137.6803    16.469363    16.469363    82.346814 
    2300    902.37317   -4030.3086   -4179.4923    3191.7533    3959.9002    3064.9689    2550.3908    16.461169    16.461169    82.305846 
    2400    927.80804   -4029.6766   -4183.0653    2395.2764    3694.3826     1494.511    1996.9356    16.460454    16.460454    82.302271 
    2500    910.58247   -4029.1214   -4179.6623    2440.1827    3014.0235    2957.7305    1348.7941    16.466414    16.466414    82.332068 
    2600    900.24116   -4028.6044   -4177.4356    1582.3081    2124.9987    2604.8903    17.035259    16.476954    16.476954     82.38477 
    2700    912.12894   -4028.0741   -4178.8706   -265.21477   -1642.9875    516.29126    331.05196     16.48946     16.48946    82.447299 
    2800    923.49718   -4027.5135   -4180.1894   -1687.5368   -865.13669   -1774.0925   -2423.3813    16.500396    16.500396    82.501979 
    2900    896.65863   -4026.9549   -4175.1938   -1713.0857   -632.75633   -1482.0863   -3024.4143    16.507143    16.507143    82.535713 
    3000    913.96843   -4026.4169   -4177.5176   -2074.2661   -1853.3958   -1079.3202   -3290.0824    16.508779    16.508779    82.543894 
    3100    894.54989   -4025.9018   -4173.7922   -1256.4809   -1182.6772   -1477.1159   -1109.6497    16.505518    16.505518    82.527591 
    3200    891.42594   -4025.3702   -4172.7441   -324.12601    -2181.901   -1260.8728    2470.3958    16.499043    16.499043    82.495217 
    3300    908.43343   -4024.8358   -4175.0214    132.83682    630.44891   -122.91128   -109.02717    16.491079    16.491079    82.455397 
    3400    913.47814   -4024.2971   -4175.3168    1283.8005    903.22572    533.63069    2414.5452    16.483952    16.483952    82.419758 
    3500    920.98542   -4023.7771   -4176.0378    1658.3923    599.21662    1759.5699    2616.3904    16.479554    16.479554    82.397769 
    3600    938.69394   -4023.3007    -4178.489     1223.267    1040.2556    625.50294    2004.0424    16.478969    16.478969    82.394847 
    3700    931.41936    -4022.851   -4176.8367    1210.5021    2491.5074   -153.54544    1293.5442     16.48236     16.48236    82.411801 
    3800    945.14546   -4022.4101   -4178.6651     229.6186    476.89977     737.8069   -525.85086    16.488435    16.488435    82.442174 
    3900    935.29482   -4022.0036     -4176.63   -459.62866   -289.55683   -399.69496    -689.6342    16.495011    16.495011    82.475053 
    4000    915.09718   -4021.5912   -4172.8784   -465.17629   -353.03731   -930.18903   -112.30254    16.500924    16.500924    82.504619 
    4100    935.35756   -4021.1465   -4175.7833   -1344.7408   -991.96535   -1866.9964   -1175.2605    16.505099    16.505099    82.525497 
    4200    926.97028   -4020.7188    -4173.969   -920.06074   -336.88323   -1133.0337   -1290.2653    16.506248    16.506248     82.53124 
    4300    923.05186   -4020.3076   -4172.9099   -740.04805   -1311.2298   -368.29864   -540.61567    16.504852    16.504852    82.524258 
    4400    911.51329   -4019.9113   -4170.6061    1.2472027   -953.35601    772.10393    184.99369    16.501559    16.501559    82.507797 
    4500    930.00598    -4019.513    -4173.265   -48.577024   -287.16287   -681.61305    823.04484    16.497627    16.497627    82.488137 
    4600    920.37665   -4019.1248   -4171.2849    1050.8501    732.04787    187.15289    2233.3495    16.493745    16.493745    82.468726 
    4700    960.83544   -4018.7597   -4177.6086    168.50142    477.20223   -47.133652    75.435691    16.491338    16.491338    82.456688 
    4800    951.02569   -4018.4313   -4175.6584    492.24789   -403.84047     649.2728    1231.3113    16.490496    16.490496     82.45248 
    4900    940.10855   -4018.1055   -4173.5277    806.39957   -40.868075    2571.6779   -111.61108    16.491982    16.491982     82.45991 
    5000    956.13797   -4017.7981   -4175.8703   -168.71207    371.29041   -271.57461     -605.852    16.495062    16.495062     82.47531 
    5100    930.37438   -4017.5188   -4171.3318    276.76872    883.61782    491.18672   -544.49839    16.498672    16.498672    82.493358 
    5200     923.5642    -4017.255   -4169.9421    404.09104    411.07014    897.54616   -96.343171    16.501999    16.501999    82.509994 
    5300    927.80797   -4016.9901   -4170.3788   -210.12588   -247.41037    699.17699   -1082.1443     16.50469     16.50469    82.523448 
    5400    935.75735   -4016.7069   -4171.4098   -662.63377   -343.28729   -846.63423   -797.97979    16.506481    16.506481    82.532405 
    5500    927.82417   -4016.4334   -4169.8248   -107.31166    946.79393   -399.16917   -869.55976    16.506609    16.506609    82.533046 
    5600    964.51574    -4016.169   -4175.6263   -1094.4708   -485.83967   -1905.8954   -891.67741    16.505651    16.505651    82.528256 
    5700     895.8137   -4015.9359   -4164.0352    961.92895    1572.1963    307.89465    1005.6959    16.503125    16.503125    82.515627 
    5800     959.0128   -4015.6962   -4174.2438   -226.85417    475.72336   -794.46689   -361.81897    16.500722    16.500722    82.503612 
    5900    926.99768   -4015.4759   -4168.7306    663.75353   -181.06966     1247.726    924.60425    16.498614    16.498614    82.493068 
    6000    973.46534   -4015.2419   -4176.1788   -150.25204    496.19334   -585.84555   -361.10391    16.498195    16.498195    82.490975 
    6100    902.72066   -4015.0409   -4164.2821     1528.666    2212.0436    14.641134    2359.3134    16.498718    16.498718     82.49359 
    6200    930.59322   -4014.8289    -4168.678    350.87917    1840.0774    257.56481   -1045.0047    16.500759    16.500759    82.503795 
    6300    944.23166   -4014.6394   -4170.7433    43.147804    612.11401     -520.617    37.946399    16.502822    16.502822    82.514109 
    6400    938.91128   -4014.4711   -4169.6954    36.695629    1889.0607   -448.12952   -1330.8443    16.504492    16.504492    82.522461 
    6500     965.8704   -4014.3157    -4173.997   -760.35775    946.42166   -588.96609   -2638.5288    16.505714    16.505714    82.528569 
    6600    944.98843   -4014.1438   -4170.3728   -111.97287   -1485.8624    882.08409    267.85966    16.506718    16.506718    82.533589 
    6700    961.86377   -4013.9902   -4173.0091    -766.8893   -1251.4074   -1042.6407   -6.6198077    16.506801    16.506801    82.534005 
    6800    944.31528   -4013.8548   -4169.9725   -173.43863    412.13856    176.40355    -1108.858    16.505732    16.505732     82.52866 
    6900    929.14755   -4013.7239   -4167.3341    339.18325    227.34874    523.01705    267.18396    16.504367    16.504367    82.521836 
    7000    962.69083   -4013.5806   -4172.7363   -340.63215    42.144749   -658.99511   -405.04607    16.503473    16.503473    82.517366 
    7100    963.06513   -4013.4281   -4172.6457   -493.44931    304.82288   -1536.0047   -249.16611    16.503198    16.503198    82.515992 
    7200    917.73712    -4013.297   -4165.0207    884.56376    -261.1494    2278.6637    636.17701    16.502898    16.502898    82.514492 
    7300    943.96628   -4013.1819    -4169.242    287.98343    206.92318   -415.73371    1072.7608    16.503031    16.503031    82.515154 
    7400    943.75514    -4013.074   -4169.0991     114.1435    572.57361    6.7879253   -236.93104    16.503673    16.503673    82.518365 
    7500    953.31797   -4012.9821   -4170.5882   -161.18533   -544.37453   -1200.4655     1261.284    16.504399    16.504399    82.521995 
    7600    933.51115   -4012.8906   -4167.2222    158.96437    1327.3433    289.27113   -1139.7213    16.505426    16.505426    82.527129 
    7700    952.92067   -4012.8043   -4170.3447   -287.05736      552.561   -878.57229   -535.16078    16.506265    16.506265    82.531323 
    7800    945.80934   -4012.7493    -4169.114   -68.781696   -436.99057   -676.57966    907.22514    16.506257    16.506257    82.531285 
    7900    968.26028   -4012.6593   -4172.7357   -702.81279    55.038962   -1233.1943   -930.28301    16.506509    16.506509    82.532546 
    8000    969.12353   -4012.5878   -4172.8069   -748.13609   -326.52568   -762.98488   -1154.8977    16.506027    16.506027    82.530135 
    8100    974.79799   -4012.5244   -4173.6816   -581.17676    -737.6415   -326.85182   -679.03695    16.505302    16.505302    82.526508 
    8200    939.13895   -4012.4892   -4167.7512    302.38278    499.20402    234.95044    172.99387    16.504276    16.504276    82.521378 
    8300    966.45289   -4012.4613   -4172.2389   -238.80074   -456.38768    337.42193   -597.43646    16.503648    16.503648    82.518238 
    8400    973.96301   -4012.4266   -4173.4458   -521.05855    14.540446   -1807.3448    229.62871    16.503647    16.503647    82.518236 
    8500    951.39629   -4012.4056   -4169.6939    37.255457   -330.23176    863.15479   -421.15665    16.503897    16.503897    82.519485 
    8600    959.81542   -4012.3851   -4171.0653   -100.50488    508.85112   -1762.9494    952.58362    16.504502    16.504502    82.522511 
    8700    962.56867   -4012.3682   -4171.5037    -330.6768   -95.458863   -1154.5661    257.99458    16.505296    16.505296    82.526481 
    8800    935.67489   -4012.3576   -4167.0468    448.03319    36.327033   -276.41464    1584.1872    16.506005    16.506005    82.530026 
    8900    968.53317   -4012.3264   -4172.4479   -523.23439   -1235.7354   -471.66436     137.6966    16.507015    16.507015    82.535074 
    9000    958.76609   -4012.3273   -4170.8341   -505.32961    148.59126   -1201.3607   -463.21936    16.507126    16.507126    82.535632 
    9100    943.24437   -4012.3315   -4168.2722     82.01177    668.66011   -613.44852    190.82372    16.506602    16.506602    82.533011 
    9200    944.88801   -4012.3436    -4168.556    173.12705    1482.0109   -816.32717   -146.30256    16.505617    16.505617    82.528085 
    9300    978.40827   -4012.3577   -4174.1118   -577.04722   -110.14193   -539.78158   -1081.2181    16.504509    16.504509    82.522545 
    9400     953.4092   -4012.3704   -4169.9915     255.6599    231.98685    1086.0029   -551.01005    16.503713    16.503713    82.518564 
    9500    945.08228   -4012.3868   -4168.6313    358.99669    501.21855    303.28976    272.48177    16.503416    16.503416    82.517082 
    9600    948.23737   -4012.3922   -4169.1584    262.48416    892.30747   -302.39478     197.5398    16.503989    16.503989    82.519946 
    9700    962.40045   -4012.4013   -4171.5089   -240.54828   -498.08056      413.594    -637.1583    16.505002    16.505002    82.525012 
    9800    939.72092   -4012.4296   -4167.7877    255.74949    480.33579   -126.87408    413.78675    16.505726    16.505726    82.528632 
    9900     943.5737   -4012.4524   -4168.4475    94.898872   -44.556114   -561.13324    890.38597    16.506413    16.506413    82.532066 
   10000       945.88   -4012.4643   -4168.8407   -295.25363   -574.47135   -504.95122    193.66168    16.507063    16.507063    82.535317 
   10100    952.54776   -4012.4599   -4169.9387   -469.77546   -2174.9558    152.55203    613.07744      16.5075      16.5075    82.537498 
   10200    950.76026   -4012.4696   -4169.6528   -252.17188   -573.66396   -55.959422   -126.89226    16.507051    16.507051    82.535255 
   10300    962.57332   -4012.4833   -4171.6195    -509.1225   -285.48877     -708.846   -533.03273    16.506178    16.506178    82.530888 
   10400    952.22116    -4012.514   -4169.9387   -119.44476   -1352.4979    1038.5683   -44.404624    16.504678    16.504678    82.523388 
   10500    936.01854   -4012.5462   -4167.2922    566.06914    1202.3152    1037.7996   -541.90739    16.503138    16.503138    82.515691 
   10600    963.62658   -4012.5564   -4171.8667      57.2293    -395.1994    41.531937    525.35536    16.502463    16.502463    82.512314 
   10700    937.61416    -4012.577   -4167.5869     817.5304    253.20219    1387.0416    812.34742    16.502309    16.502309    82.511545 
   10800    928.15589   -4012.5895   -4166.0357    614.59413    758.64658    1065.7934    19.342437    16.503009    16.503009    82.515043 
   10900    938.03148    -4012.607   -4167.6858    212.59485    534.77449    747.06245    -644.0524    16.504092    16.504092     82.52046 
   11000    933.00448   -4012.6273   -4166.8751    366.24695   -166.36698    767.62121    497.48662    16.505184    16.505184    82.525921 
   11100    951.97239     -4012.63   -4170.0136   -204.27332    88.456335   -208.28628   -492.99002    16.506553    16.506553    82.532764 
   11200    952.40983   -4012.6654   -4170.1213   -48.861451   -1399.8575     933.9937    319.27947    16.507203    16.507203    82.536016 
   11300    961.64633   -4012.6933   -4171.6763    -771.9043    -1144.244   -159.41117   -1012.0577    16.507621    16.507621    82.538106 
   11400    937.40353   -4012.7168   -4167.6919    51.909123    900.00965   -970.31857    226.03629    16.507145    16.507145    82.535725 
   11500    960.61962   -4012.7137   -4171.5269   -143.00471   -953.56947     752.1301   -227.57477    16.506458    16.506458    82.532288 
   11600    937.42142   -4012.7202   -4167.6982    222.32327    70.293934     18.04718     578.6287    16.505328    16.505328    82.526638 
   11700    927.70495   -4012.7277   -4166.0993    624.72465    1327.8343   -752.57817    1298.9178    16.504221    16.504221    82.521106 
   11800    941.35739   -4012.7403    -4168.369    263.86236   -1151.8276    855.44097    1087.9737    16.503247    16.503247    82.516237 
   11900    951.71322    -4012.758   -4170.0988    34.906877   -1565.3055    128.66548    1541.3607    16.502505    16.502505    82.512525 
   12000    966.17186   -4012.7707   -4172.5019     -61.9892   -369.93304    321.29371   -137.32827    16.502304    16.502304    82.511522 
   12100    946.88416   -4012.7845   -4169.3269    328.10539     914.0938   -2121.3222    2191.5446    16.502931    16.502931    82.514653 
   12200    953.43989   -4012.8034   -4170.4297    92.787672    571.40686    98.846682   -391.89053    16.503863    16.503863    82.519313 
   12300    964.85688   -4012.8212   -4172.3349   -134.43371   -1878.0162   -182.69347    1657.4085    16.504852    16.504852    82.524261 
   12400     965.3571   -4012.8437   -4172.4401   -731.30482   -1104.6824   -1513.4088    424.17675    16.505668    16.505668    82.528338 
   12500    950.21888   -4012.8777   -4169.9714   -263.31774    804.87176   -293.58398    -1301.241    16.505754    16.505754    82.528768 
   12600    955.28919   -4012.8827   -4170.8147    -369.3904    92.194023    365.36663   -1565.7318     16.50587     16.50587    82.529349 
   12700    962.76496   -4012.8528   -4172.0207   -678.93665   -1298.9152   -7.0062065   -730.88859    16.506001    16.506001    82.530003 
   12800    963.85207   -4012.8187   -4172.1663   -380.20293   -794.04929    350.43885   -696.99836    16.505648    16.505648    82.528238 
   12900    958.15089   -4012.7806   -4171.1856   -263.18057    390.19594   -1587.4493    407.71171    16.505259    16.505259    82.526296 
   13000    955.21997   -4012.7782   -4170.6988   -351.09879    1154.0255   -592.04147   -1615.2804    16.504247    16.504247    82.521233 
   13100     938.4938   -4012.7526   -4167.9079    170.31993    1118.1571   -136.83115   -470.36618    16.503552    16.503552    82.517762 
   13200    935.62768   -4012.7316    -4167.413     513.5675    1406.1372   -108.72525    243.29053     16.50301     16.50301     82.51505 
   13300    921.61358    -4012.703   -4165.0676    985.16608    2680.6359   -403.78477    678.64711    16.502995    16.502995    82.514973 
   13400     930.1288   -4012.6647   -4166.4371    546.76013    544.36457    1144.3766    -48.46077    16.503636    16.503636    82.518182 
   13500    938.25716   -4012.6295   -4167.7457    381.60742    113.33389    131.95092    899.53744    16.504393    16.504393    82.521967 
   13600    957.49296    -4012.609   -4170.9053    184.70051   -199.83157    2062.2153   -1308.2822    16.504942    16.504942    82.524709 
   13700     971.5908    -4012.593     -4173.22   -480.73439    1418.1351   -52.044419   -2808.2938    16.505708    16.505708    82.528538 
   13800    951.37861   -4012.5799   -4169.8653    87.552731   -1428.1245     511.1201    1179.6625     16.50662     16.50662    82.533102 
   13900    951.96758   -4012.5797   -4169.9625    -244.5474    836.10261   -532.36991   -1037.3749      16.5075      16.5075      82.5375 
   14000    948.09672   -4012.5902   -4169.3331   -303.79563   -463.20796    -708.4908    260.31186    16.507781    16.507781    82.538906 
   14100    948.29628   -4012.5957   -4169.3716   -210.62468   -103.47019   -362.30166   -166.10219    16.507548    16.507548    82.537738 
   14200    929.68348    -4012.603   -4166.3017    193.37106    179.49286   -877.31361    1277.9339    16.506627    16.506627    82.533136 
   14300     944.8071   -4012.5819   -4168.7809    34.917563   -143.07061   -649.67536    897.49866    16.505742    16.505742    82.528709 
   14400    949.74226   -4012.5711   -4169.5861    290.87344    700.67401   -168.17442    340.12073    16.504583    16.504583    82.522913 
   14500     969.1836   -4012.5826   -4172.8116   -358.07497   -493.32503   -257.71857    -323.1813    16.503496    16.503496    82.517481 
   14600    950.40549   -4012.6028   -4169.7274    516.34584    1347.1275    26.608917    175.30116    16.502561    16.502561    82.512806 
   14700    956.25463   -4012.6258   -4170.7174    288.52206   -30.622258   -640.20296    1536.3914    16.502583    16.502583    82.512914 
   14800    941.88432   -4012.6522    -4168.368    237.70295   -1419.5176    799.03604    1333.5904    16.503256    16.503256    82.516281 
   14900    936.00469   -4012.6753   -4167.4191    240.90121    1127.3999   -894.18387    489.48762    16.504069    16.504069    82.520345 
   15000    958.33532    -4012.696   -4171.1315   -222.16818    555.78643   -791.59982   -430.69115    16.505026    16.505026    82.525128 
   15100    963.78291    -4012.702   -4172.0381   -319.41633    140.72723   -830.87906   -268.09716    16.506448    16.506448    82.532238 
   15200    916.03182    -4012.722   -4164.1638    574.89248    1501.8558   -533.64762    756.46931    16.507493    16.507493    82.537466 
   15300    962.59818   -4012.7222   -4171.8625   -811.51225   -182.02862   -1659.5038   -593.00429    16.508274    16.508274    82.541368 
   15400    938.75268   -4012.7338   -4167.9319    92.866531    1410.8711    -1232.565    100.29352    16.507673    16.507673    82.538364 
   15500    974.89184   -4012.7107   -4173.8835   -862.08474   -250.55365   -2204.6505   -131.05006    16.507112    16.507112     82.53556 
   15600    943.39672   -4012.6846   -4168.6504   -73.210954   -1213.0828    160.37853    833.07138    16.506232    16.506232    82.531158 
   15700    950.82538   -4012.6668   -4169.8608    23.469707    367.94721    548.00577   -845.54386    16.505042    16.505042     82.52521 
   15800    963.63135   -4012.6654   -4171.9765   -324.94611   -1053.6276    -169.6431    248.43236    16.503868    16.503868    82.519338 
   15900    933.25488   -4012.6745   -4166.9636     637.6705    937.67403   -1396.0103    2371.3478    16.503432    16.503432     82.51716 
   16000    960.39017   -4012.6703   -4171.4456   -224.79266   -589.83751    379.16338   -463.70383       16.504       16.504        82.52 
   16100     954.4687   -4012.6706   -4170.4669    186.15454    982.66593   -1094.9825    670.78019    16.504647    16.504647    82.523236 
   16200    947.72199   -4012.6626   -4169.3435   -58.479435   -39.770057   -228.24293    92.574679    16.505748    16.505748    82.528741 
   16300    962.69056   -4012.6467   -4171.8023   -374.10888    -529.6686   -1137.6922    545.03414    16.506982    16.506982     82.53491 
   16400    973.08081   -4012.6453   -4173.5187   -902.12892   -314.64803   -1301.0608   -1090.6779    16.507655    16.507655    82.538275 
   16500    941.22024    -4012.666   -4168.2721    33.283346   -1295.5008    563.05687    832.29395    16.507261    16.507261    82.536303 
   16600     943.1565   -4012.6569   -4168.5831   -41.368679   -1138.1003    995.58376    18.410532    16.507085    16.507085    82.535426 
   16700    959.92995   -4012.6433   -4171.3425   -287.60396   -580.43023    553.24755    -835.6292    16.506856    16.506856    82.534281 
   16800    964.44693   -4012.6165   -4172.0625   -175.40498   -11.615424    357.32005   -871.91955    16.506733    16.506733    82.533667 
   16900    933.42127   -4012.6057   -4166.9224    224.61817    -29.13653    233.74029    469.25077    16.506268    16.506268    82.531342 
   17000    957.17996   -4012.6058   -4170.8504   -357.15571   -145.68724   -893.55822   -32.221659    16.505525    16.505525    82.527623 
   17100    957.59362   -4012.6126   -4170.9255   -235.29153    588.48317    -1148.003    -146.3548    16.504603    16.504603    82.523015 
   17200    960.09291    -4012.613   -4171.3392   -109.96657    1170.7295   -1113.6052   -387.02403    16.503844    16.503844     82.51922 
   17300    956.58446   -4012.6067   -4170.7528    140.55426    340.11999    261.93686   -180.39409    16.503572    16.503572    82.517858 
   17400    944.27684   -4012.6132   -4168.7246    357.71561    934.45043    979.52102   -840.82463    16.503425    16.503425    82.517124 
   17500    988.57534   -4012.6296   -4176.0645   -780.37945   -1372.3325    311.76094   -1280.5668    16.503704    16.503704     82.51852 
   17600    952.33698   -4012.6739   -4170.1178    196.30213    1161.1461   -98.158498   -474.08121    16.503719    16.503719    82.518595 
   17700    966.04221   -4012.7045   -4172.4142   -209.25665   -798.85653    355.44999   -184.36342    16.504362    16.504362    82.521812 
   17800    938.71799    -4012.745   -4167.9373    481.64025   -302.58463    1502.5802    244.92519    16.504886    16.504886    82.524428 
   17900    971.63842   -4012.7737   -4173.4086    -539.3368   -2151.2091    275.49114    257.70753    16.505732    16.505732     82.52866 
   18000    956.46764   -4012.8143    -4170.941   -224.60559   -543.64782   -395.29142    265.12247    16.506211    16.506211    82.531053 
   18100    959.99264   -4012.8689   -4171.5785   -439.17617   -92.333383    -283.6345   -941.56064    16.506254    16.506254    82.531268 
   18200    936.84301   -4012.9295   -4167.8119    290.41051   -354.53924    334.08547    891.68529    16.505856    16.505856    82.529279 
   18300    942.14652   -4012.9602   -4168.7193     110.8077   -500.21451   -826.24226    1658.8799    16.505746    16.505746    82.528728 
   18400    951.66248   -4012.9832   -4170.3156    249.02901     226.5507    179.29579    341.24053    16.505764    16.505764    82.528819 
   18500    935.72664   -4013.0108   -4167.7086    298.23721   -1676.6556    2022.1537    549.21353    16.505602    16.505602    82.528011 
   18600    938.53503   -4013.0166   -4168.1787    246.58225    684.95518   -808.27486    863.06642    16.505499    16.505499    82.527495 
   18700    949.98427   -4013.0482   -4170.1031    18.282792    1539.3278   -452.49363   -1031.9858    16.504933    16.504933    82.524666 
   18800    949.26332   -4013.0713    -4170.007    6.8863791   -86.202699   -611.11305    717.97489    16.504678    16.504678    82.523388 
   18900    957.45864   -4013.0701   -4171.3607   -244.39176   -22.646454    864.79835   -1575.3272    16.504851    16.504851    82.524257 
   19000    945.24048   -4013.0696   -4169.3403    175.61678   -723.45099    660.12803    590.17331    16.504974    16.504974    82.524869 
   19100    933.48724    -4013.071   -4167.3985    298.55197     493.0583    354.20921    48.388412    16.505108    16.505108    82.525538 
   19200    931.63002   -4013.0696   -4167.0902    541.55895     1060.936    600.54426   -36.803402    16.505394    16.505394     82.52697 
   19300    967.66048   -4013.0656   -4173.0429   -467.85277    -1571.587   -189.79881    357.82748    16.505795    16.505795    82.528973 
   19400    936.73838   -4013.0468   -4167.9119    149.04578    1038.4059   -329.27479   -261.99375    16.506241    16.506241    82.531203 
   19500    945.96647   -4013.0071   -4169.3978   -104.39683    317.61537   -1417.8304    787.02458    16.506558    16.506558    82.532792 
   19600     956.2245   -4012.9856   -4171.0722   -110.39481   -626.88485    379.69002   -83.989604    16.505981    16.505981    82.529907 
   19700    957.71129   -4012.9791   -4171.3115   -190.83191   -620.21424    131.46398   -83.745468    16.505072    16.505072    82.525359 
   19800    948.55353   -4012.9891   -4169.8075    44.267366    499.22564    467.20362   -833.62716    16.503876    16.503876    82.519382 
   19900    923.17512    -4012.998   -4165.6208    665.50133   -894.36688    1486.0472    1404.8236    16.502704    16.502704     82.51352 
   20000    965.06558   -4012.9803   -4172.5285    150.39728    230.00064   -582.90196    804.09315      16.5025      16.5025    82.512499 
   20100    940.57888    -4012.974    -4168.474    165.04254   -402.23745   -548.75552    1446.1206    16.502994    16.502994    82.514969 
   20200    984.82635    -4012.946   -4175.7612   -491.66414   -1978.5199   -1064.5391    1568.0665      16.5043      16.5043    82.521499 
   20300    920.61174   -4012.9268   -4165.1257    451.03905    899.79865   -202.95823    656.27672    16.505952    16.505952    82.529758 
   20400    927.96347   -4012.8854   -4166.2998     320.0255   -29.713632    16.033419    973.75671    16.507853    16.507853    82.539264 
   20500    963.48645    -4012.858   -4172.1451   -879.40506   -2147.2315   -1271.4346    780.45095    16.508858    16.508858     82.54429 
   20600    924.56217   -4012.8179     -4165.67    154.89716    33.169988    608.25136   -176.72986    16.508864    16.508864    82.544321 
   20700    947.36705   -4012.7769   -4169.3991   -395.40641   -1120.0271    388.95496   -455.14707    16.507997    16.507997    82.539984 
   20800    961.51451   -4012.7644   -4171.7256   -396.63976   -545.09017    -929.9266    285.09749    16.505866    16.505866    82.529329 
   20900    963.31477   -4012.7509   -4172.0097   -42.959478   -1239.8718    167.18921    943.80414    16.503742    16.503742    82.518709 
   21000    940.19596   -4012.7402   -4168.1769    795.00372    -642.9203    1799.3624    1228.5691    16.502039    16.502039    82.510193 
   21100    950.62641    -4012.741   -4169.9021    433.66509   -669.52862    797.37676    1173.1471    16.501203    16.501203    82.506013 
   21200    927.13172   -4012.7704   -4166.0473    1148.7159    1406.7474    910.89254    1128.5077    16.500965    16.500965    82.504827 
   21300    957.33725   -4012.7831   -4171.0536     133.3062   -1069.7274    1078.9927    390.65326    16.502343    16.502343    82.511716 
   21400    955.44399   -4012.7949   -4170.7524    -50.79218     448.8359   -329.93629   -271.27615    16.504427    16.504427    82.522133 
   21500    945.63442   -4012.8272    -4169.163    75.212006    180.68157   -446.94702    491.90146    16.506109    16.506109    82.530545 
   21600    972.48604   -4012.8506   -4173.6256   -1085.8645   -885.29164   -775.39576    -1596.906     16.50744     16.50744    82.537202 
   21700    919.04286   -4012.8645   -4164.8041    237.97426    514.27113     -6.01404     205.6657    16.507595    16.507595    82.537976 
   21800    929.75773    -4012.835    -4166.546    77.877591    603.68586    900.75665   -1270.8097    16.507437    16.507437    82.537183 
   21900    950.50293    -4012.823   -4169.9637    213.38987    955.95761   -637.63981     321.8518    16.506457    16.506457    82.532284 
   22000    942.60495   -4012.8282   -4168.6632   -80.154937    541.39116   -1190.1197    408.26368    16.505483    16.505483    82.527416 
   22100    938.58048   -4012.8044    -4167.974    446.68107    1197.3161    1213.3256   -1070.5985    16.505007    16.505007    82.525037 
   22200    971.30598   -4012.8057   -4173.3856   -584.13852   -603.60927    21.390285   -1170.1966    16.504411    16.504411    82.522055 
   22300    957.47471   -4012.8158   -4171.1091    41.136266    208.93573    185.31575   -270.84269    16.503832    16.503832    82.519158 
   22400    938.80308   -4012.8091   -4168.0155    670.91978     1211.905   -11.889228    812.74358    16.504073    16.504073    82.520366 
   22500    970.10237   -4012.8135   -4173.1944   -527.99509   -698.86759   -653.15562   -231.96206    16.504689    16.504689    82.523444 
   22600    959.09727    -4012.803   -4171.3645   -304.73353   -132.12365   -419.36597   -362.71096    16.505406    16.505406    82.527028 
   22700    953.26025   -4012.7892   -4170.3858    -257.3354   -91.254023   -194.52241   -486.22977    16.506155    16.506155    82.530774 
   22800    959.85478   -4012.7642    -4171.451   -470.31599    955.01465   -1636.7912   -729.17143     16.50671     16.50671    82.533549 
   22900    971.29748   -4012.7479   -4173.3264   -558.90729    406.34013   -1112.0367   -971.02526    16.506536    16.506536    82.532679 
   23000    978.86541   -4012.7102   -4174.5398   -728.93605   -1408.5116    452.50473   -1230.8013     16.50647     16.50647    82.532352 
   23100    962.09311   -4012.6858   -4171.7426   -450.66389   -107.61511   -592.76456     -651.612    16.506032    16.506032     82.53016 
   23200    921.74655    -4012.677   -4165.0635    580.75736   -63.220809    300.40634    1505.0865    16.505121    16.505121    82.525603 
   23300     990.6161   -4012.6386   -4176.4109   -632.49704   -573.99806   -1361.5971    38.104026    16.504666    16.504666    82.523328 
   23400    948.67703   -4012.6321    -4169.471    252.11985   -398.37042   -671.47012    1826.2001    16.504159    16.504159    82.520793 
   23500    958.81873   -4012.6222   -4171.1377   -248.56029   -735.64356   -161.42188    151.38457     16.50424     16.50424      82.5212 
   23600    970.49266   -4012.6272   -4173.0726   -539.18195   -719.99846   -763.13648   -134.41092    16.504316    16.504316    82.521578 
   23700    957.94382   -4012.6393   -4171.0101    95.170887    198.54312     -468.942    555.91154    16.504226    16.504226    82.521132 
   23800     960.1272   -4012.6686   -4171.4004   -86.753876   -645.44529    173.03067    212.15299    16.503906    16.503906    82.519532 
   23900    951.96806   -4012.6924   -4170.0753    185.38541    195.30939   -590.97579    951.82264    16.503667    16.503667    82.518333 
   24000    938.94258   -4012.7252   -4167.9546    390.51918    235.40194   -81.906754    1018.0623    16.503751    16.503751    82.518756 
   24100    935.39957   -4012.7319   -4167.3756    587.84739   -44.525014    526.19535    1281.8718    16.504606    16.504606    82.523029 
   24200    963.91854   -4012.7207   -4172.0793    -479.0941    76.318113    -1489.101   -24.499401    16.505891    16.505891    82.529455 
   24300     948.9483   -4012.7016   -4169.5853   -209.48923    -234.9726   -122.14927   -271.34581    16.506901    16.506901    82.534504 
   24400     926.7982   -4012.6973    -4165.919    297.02843    1441.4379   -1086.8472    536.49455    16.506896    16.506896    82.534478 
   24500    917.01454   -4012.6914   -4164.2957    583.90199    1012.0741    1314.6453   -575.01337    16.506316    16.506316    82.531581 
   24600    958.77833   -4012.6769   -4171.1857    -233.4865   -180.26211   -611.61876    91.421367    16.505511    16.505511    82.527553 
   24700    932.03517   -4012.6615   -4166.7491    580.50343    1795.9713    826.46831   -880.92934    16.504639    16.504639    82.523195 
   24800    952.94598    -4012.656   -4170.2006   -107.23981    938.01281   -571.79404    -687.9382     16.50393     16.50393    82.519649 
   24900    952.29451   -4012.6453   -4170.0822    163.42728    1445.6619   -62.163285    -893.2168     16.50344     16.50344    82.517199 
   25000     957.1454   -4012.6335   -4170.8723    41.824604    858.67022   -410.93552   -322.26089    16.503153    16.503153    82.515767 
   25100    959.72703   -4012.6199   -4171.2855    61.346449     532.9762   -422.60679    73.669934    16.503332    16.503332    82.516662 
   25200    965.70809   -4012.6221   -4172.2766    26.602924   -154.98403   -1059.7433    1294.5361    16.503838    16.503838    82.519188 
   25300    944.64561   -4012.6323   -4168.8046    200.94051    70.111331    123.90696    408.80325    16.505085    16.505085    82.525423 
   25400    968.15699   -4012.6033   -4172.6626   -733.00342   -1544.9326   -1835.2554    1181.1777    16.507064    16.507064     82.53532 
   25500    968.88273   -4012.5821   -4172.7614   -796.79854   -1037.0743   -1558.0512    204.72988    16.508392    16.508392    82.541962 
   25600    922.80793   -4012.5895   -4165.1516    202.02656    377.30995     653.0594   -424.28968    16.508621    16.508621    82.543106 
   25700    957.70947   -4012.5577   -4170.8898   -758.64594   -1273.9529   -1404.9359    402.95102    16.508668    16.508668    82.543338 
   25800    934.69431   -4012.5355   -4167.0627    -30.95785   -1170.1197   -784.68905    1861.9352    16.507602    16.507602    82.538011 
   25900     969.9477   -4012.5203   -4172.8756   -461.39067   -800.74816   -707.12938    123.70553    16.505884    16.505884    82.529419 
   26000    976.98203   -4012.5186   -4174.0369   -395.82192    1036.9877   -2255.1091    30.655604    16.503874    16.503874    82.519369 
   26100     960.4826   -4012.5431   -4171.3336   -48.863802   -933.31185    6.1939874    780.52646     16.50229     16.50229    82.511449 
   26200    950.68363    -4012.546   -4169.7166    709.73247    1267.9625   -39.866306    901.10119    16.501848    16.501848    82.509239 
   26300    929.19013   -4012.5833   -4166.2005    957.89587    -514.2655     2089.009    1298.9441    16.502031    16.502031    82.510155 
   26400    949.04347   -4012.6008   -4169.5002     19.46266   -308.48526   -1100.2431    1467.1164    16.503375    16.503375    82.516874 
   26500    966.26718   -4012.5967   -4172.3436   -420.27831   -2027.8682    487.49372    279.53953    16.505263    16.505263    82.526313 
   26600    951.37557    -4012.597   -4169.8819   -459.39564    655.25732   -459.76769   -1573.6766    16.506992    16.506992     82.53496 
   26700    921.28399   -4012.5763   -4164.8864    352.53088   -441.95578    1269.1437     230.4047    16.508178    16.508178    82.540889 
   26800    975.11898   -4012.5181   -4173.7284   -1061.0239   -1686.4486   -1705.1403     208.5171    16.509195    16.509195    82.545977 
   26900    926.13506   -4012.4936   -4165.6057   -27.206048    -208.6755    300.43677   -173.37942    16.508666    16.508666     82.54333 
   27000    947.94433   -4012.4488   -4169.1665    25.901498    -308.5876   -124.52556    510.81765    16.507563    16.507563    82.537815 
   27100     966.6611   -4012.4097   -4172.2217   -252.96049   -570.02883   -939.25575    750.40312    16.506123    16.506123    82.530613 
   27200     953.7775   -4012.3932   -4170.0752   -67.483631   -1.4416708   -936.39512     735.3859    16.504615    16.504615    82.523075 
   27300    965.93383   -4012.3621   -4172.0539   -219.53389   -887.19408   -644.29689    872.88931    16.504032    16.504032    82.520162 
   27400    974.17912   -4012.3593   -4173.4142   -522.04551   -624.54768   -744.27878   -197.31007    16.503386    16.503386    82.516931 
   27500    929.06206   -4012.3866   -4165.9826    1020.2681     1137.838   -64.548445    1987.5147    16.502605    16.502605    82.513027 
   27600    943.70842   -4012.4167   -4168.4341    632.83956   -170.59323    1121.0163    948.09564    16.502529    16.502529    82.512646 
   27700    945.80774   -4012.4378   -4168.8023    89.647593   -267.25832   -492.52951    1028.7306    16.503299    16.503299    82.516495 
   27800    945.21027   -4012.4533    -4168.719    287.37429    1655.1651   -2003.6958    1210.6535    16.504447    16.504447    82.522236 
   27900     973.7344   -4012.4707   -4173.4521   -718.99574   -1066.3696   -1365.3034    274.68574    16.505786    16.505786    82.528931 
   28000    988.35221   -4012.4777   -4175.8758   -1039.6882   -1975.5001   -841.10258   -302.46193    16.506868    16.506868     82.53434 
   28100    943.69596   -4012.4813   -4168.4966   -3.0070546    91.775213   -294.51427     193.7179    16.507522    16.507522    82.537608 
   28200    950.87493   -4012.4782   -4169.6804   -529.29743     241.6999   -1423.2324   -406.35977    16.507992    16.507992    82.539958 
   28300    951.73943   -4012.4635   -4169.8086   -352.81229    329.32633     100.3573   -1488.1205    16.507863    16.507863    82.539313 
   28400    977.51827   -4012.4679   -4174.0749   -963.95633   -1131.1914   -676.52198   -1084.1556    16.506682    16.506682    82.533409 
   28500    955.44683    -4012.471   -4170.4291    271.16139    30.965417    843.53337   -61.014627    16.505056    16.505056    82.525278 
   28600     961.4757   -4012.4748   -4171.4296   -37.981276    389.83358   -922.53948    418.76207    16.503906    16.503906    82.519528 
   28700    973.06357   -4012.4896   -4173.3601   -302.93402    240.30674   -399.61774   -749.49107    16.503043    16.503043    82.515214 
   28800    951.07409   -4012.5225   -4169.7576    179.21179    677.14585   -330.12863    190.61815    16.502372    16.502372     82.51186 
   28900    946.62221   -4012.5332   -4169.0323     195.9315     320.7186   -198.50648    465.58237    16.502599    16.502599    82.512997 
   29000    951.85147   -4012.5492   -4169.9129   -16.534971    1256.4505   -892.50736   -413.54805    16.503109    16.503109    82.515546 
   29100    958.57521   -4012.5707   -4171.0459      16.3897    344.40468   -105.44493   -189.79065    16.503847    16.503847    82.519236 
   29200    957.64865   -4012.5822   -4170.9042   -290.27896    16.207462   -729.96323    -157.0811    16.505202    16.505202    82.526011 
   29300    963.69882   -4012.5928   -4171.9151   -116.27247   -524.93129    668.63024   -492.51637    16.506344    16.506344    82.531722 
   29400    952.19983   -4012.6103   -4170.0315     -262.418   -1934.9574    564.79415    582.90924    16.507172    16.507172    82.535861 
   29500    969.08528    -4012.632   -4172.8448   -607.49419   -293.27605   -874.28945   -654.91708    16.507403    16.507403    82.537017 
   29600    899.38286   -4012.6774   -4161.3668     1085.033   -617.68237    2634.3183    1238.4632    16.506715    16.506715    82.533577 
   29700    987.24337   -4012.6849   -4175.8996   -1313.8333    -2632.947   -492.31009   -816.24278    16.506377    16.506377    82.531885 
   29800    934.61395   -4012.7066   -4167.2204    486.09791    63.035475    828.78712    566.47113    16.505292    16.505292     82.52646 
   29900     947.3643   -4012.7168   -4169.3386    310.80688   -8.6946235   -228.28512    1169.4004    16.504439    16.504439    82.522196 
   30000     972.9347   -4012.7035   -4173.5527   -172.82362   -886.04135    723.47097   -355.90046     16.50427     16.50427     82.52135 
   30100    976.60505   -4012.6998   -4174.1558   -676.71659    -953.1341    502.10011   -1579.1158    16.504406    16.504406     82.52203 
   30200     946.6515   -4012.7155   -4169.2195    331.84454    -1790.655    728.96863      2057.22    16.504313    16.504313    82.521566 
   30300    931.98802   -4012.7248   -4166.8045    406.30611   -86.978865      1199.95    105.94718    16.504594    16.504594    82.522968 
   30400    945.13265    -4012.719   -4168.9719    319.58405     99.29064    415.95676    443.50476    16.505274    16.505274    82.526371 
   30500    952.91372   -4012.7062   -4170.2454   -374.58205    911.01179   -772.58858   -1262.1694    16.506118    16.506118    82.530588 
   30600    944.96306   -4012.6814   -4168.9062   -155.57696   -387.14947    673.73571   -753.31713    16.506617    16.506617    82.533085 
   30700    959.25277   -4012.6798   -4171.2671   -561.16148   -825.42247   -1012.9015    154.83953    16.506174    16.506174    82.530871 
   30800    970.08506   -4012.6807   -4173.0587   -604.93982    721.89125    -719.1229   -1817.5878    16.505045    16.505045    82.525225 
   30900    967.24788    -4012.687    -4172.596   -187.47264    -62.66768    -631.6908    131.94055    16.503609    16.503609    82.518046 
   31000    941.67879   -4012.6801    -4168.362    680.26609    707.18801    1017.2271    316.38311    16.502915    16.502915    82.514576 
   31100    947.42054   -4012.6894   -4169.3205    227.49022    300.68116    705.90794   -324.11843    16.503041    16.503041    82.515206 
   31200    922.02171   -4012.7097   -4165.1417    1004.1633    399.86396    1132.3284    1480.2976    16.503627    16.503627    82.518135 
   31300    965.91503   -4012.7046   -4172.3933   -551.18415   -13.439796   -736.31072   -903.80195    16.505404    16.505404    82.527022 
   31400    934.12808   -4012.6809   -4167.1145    115.51248    356.61451     12.22646   -22.303521    16.507322    16.507322    82.536611 
   31500    978.35373   -4012.6493   -4174.3943    -1046.874   -19.809653   -2185.8728   -934.93952    16.508842    16.508842    82.544211 
   31600     950.5749   -4012.6426   -4169.7951   -613.29272   -16.353099   -843.97252   -979.55253    16.508877    16.508877    82.544387 
   31700    936.09342   -4012.6219   -4167.3804    142.92819    470.78342   -223.23632    181.23748    16.508073    16.508073    82.540367 
   31800    936.54382   -4012.5959   -4167.4288    303.18129    929.68027    1040.5151   -1060.6515    16.506851    16.506851    82.534256 
   31900    954.00987   -4012.5794   -4170.2999   -142.18616   -1214.5972    556.89961    231.13913    16.505512    16.505512    82.527559 
   32000    980.84523   -4012.5546   -4174.7116   -687.56931    458.54444    -1159.387   -1361.8654    16.504649    16.504649    82.523244 
   32100    956.75577    -4012.538   -4170.7124   -22.868675    238.19192   -1076.5778     769.7799    16.503632    16.503632    82.518159 
   32200    967.74727   -4012.5418   -4172.5334   -369.78117   -493.71447   -290.41578   -325.21325    16.502687    16.502687    82.513433 
   32300     960.4337   -4012.5366   -4171.3191   -160.23477   -57.385074   -9.9397818   -413.37945    16.502274    16.502274    82.511371 
   32400    975.71925   -4012.5267   -4173.8362   -542.91168   -497.55021   -1221.7174    90.532569    16.502312    16.502312    82.511561 
   32500    959.55208   -4012.5269   -4171.1636   -154.04833    403.18517   -1521.5628    656.23267    16.502668    16.502668    82.513341 
   32600    954.09124   -4012.5263   -4170.2602    91.133742    160.28586   -882.26305    995.37841    16.503595    16.503595    82.517974 
   32700     947.3559   -4012.5217   -4169.1421   -122.79118   -388.36014    830.78369   -810.79708    16.504872    16.504872    82.524362 
   32800     961.9056   -4012.5002    -4171.526   -461.50214   -15.734867   -169.58001   -1199.1915    16.506408    16.506408    82.532042 
   32900    959.66874   -4012.4784   -4171.1344   -713.33499    58.778466   -362.74539    -1836.038    16.507567    16.507567    82.537835 
   33000     940.2163   -4012.4599   -4167.8999    239.88638    217.51582   -667.30421    1169.4475    16.507975    16.507975    82.539876 
   33100      943.465   -4012.4533   -4168.4305     101.7292    674.38185   -36.187294   -333.00695    16.508005    16.508005    82.540024 
   33200    935.60579   -4012.4554   -4167.1332   -115.99831    535.65485   -1717.0089    833.35909    16.507626    16.507626    82.538129 
   33300    984.52549   -4012.4402   -4175.2056   -793.12375   -860.35832   -1693.9227    174.90976    16.507133    16.507133    82.535667 
   33400    967.23436   -4012.4486   -4172.3554   -510.04201   -656.80399   -1318.8382    445.51615    16.506091    16.506091    82.530453 
   33500    953.94273   -4012.4642   -4170.1736   -96.927185   -678.86447   -473.98285    862.06577    16.504772    16.504772    82.523859 
   33600    956.49335   -4012.4719   -4170.6029    95.792221    151.42706   -877.56376    1013.5134    16.503637    16.503637    82.518185 
   33700    955.10302   -4012.4911   -4170.3923    293.42989   -694.05055    722.25761    852.08261    16.502753    16.502753    82.513766 
   33800    922.07834   -4012.5322   -4164.9736    908.56828    422.38599    348.67995    1954.6389    16.502081    16.502081    82.510407 
   33900    952.09926   -4012.5341   -4169.9387     153.6869    1022.4003   -1634.2912    1072.9515    16.502616    16.502616    82.513082 
   34000    950.28057   -4012.5558   -4169.6597    136.66204   -934.54308    460.28892    884.24027    16.503591    16.503591    82.517953 
   34100    934.18145   -4012.5607   -4167.0031    492.32151    209.11623    825.97233    441.87596    16.505255    16.505255    82.526276 
   34200    953.80421   -4012.5877   -4170.2741   -432.35889   -1198.6645    299.51669   -397.92885    16.506553    16.506553    82.532767 
   34300    977.52396   -4012.5847   -4174.1926   -623.39693   -1011.1386    699.83626   -1558.8884     16.50785     16.50785    82.539251 
   34400    949.49942   -4012.5976   -4169.5724   -381.84168   -1220.4368   -152.43675    227.34855    16.508442    16.508442    82.542211 
   34500    936.04883   -4012.5943   -4167.3453    130.54648    599.06474   -871.16311    663.73781    16.508497    16.508497    82.542485 
   34600    943.18898   -4012.5831   -4168.5146   -44.458185   -314.45483    234.92611   -53.845835    16.508168    16.508168    82.540839 
   34700    938.15781   -4012.5704   -4167.6701      298.817   -119.41534    85.010617    930.85574     16.50754     16.50754    82.537698 
   34800    952.12164   -4012.5578   -4169.9661   -292.34614   -789.50014    -174.4485    86.910236    16.506654    16.506654    82.533268 
   34900    972.99879   -4012.5518   -4173.4116   -614.23611   -466.85176   -1187.1816   -188.67499    16.505478    16.505478    82.527388 
   35000    954.23616   -4012.5711    -4170.329    213.55294   -763.93899    767.06959    637.52823    16.503906    16.503906     82.51953 
   35100    923.15121     -4012.58   -4165.1988    1017.9134    1187.4901     532.2881    1333.9619    16.503251    16.503251    82.516257 
   35200    932.77669   -4012.5729   -4166.7831    370.72555     19.61117   -1627.5102    2720.0757    16.503658    16.503658    82.518289 
   35300    952.11028    -4012.576   -4169.9825    102.84551    640.17507    10.103641   -341.74218    16.504099    16.504099    82.520495 
   35400    949.74703   -4012.6037   -4169.6194    68.976695    -554.9172   -152.81195    914.65923    16.504531    16.504531    82.522656 
   35500    954.62785   -4012.6353   -4170.4579   -47.383716   -728.00964   -487.75777    1073.6163    16.505008    16.505008     82.52504 
   35600    950.53214   -4012.6597   -4169.8052   -102.96441   -1135.1218   -101.83491    928.06346    16.505693    16.505693    82.528464 
   35700    915.69745   -4012.6884   -4164.0749    538.00228   -387.06038    1157.4745    843.59275    16.505948    16.505948    82.529742 
   35800    947.70458   -4012.7187   -4169.3968   -22.537284   -1087.8141    1325.2341   -305.03187    16.505777    16.505777    82.528884 
   35900    963.63047   -4012.7225   -4172.0334   -323.34106   -1451.4264    271.35791    210.04528    16.505845    16.505845    82.529223 
   36000    929.42326   -4012.7422   -4166.3979    703.54758   -460.41882    559.83778    2011.2238    16.505494    16.505494    82.527469 
   36100    962.81206    -4012.735   -4171.9107   -314.29046   -2694.7398    359.09759    1392.7708    16.505713    16.505713    82.528566 
   36200    962.38526   -4012.7414   -4171.8465   -293.03036   -858.29406   -392.05785    371.26082     16.50577     16.50577    82.528849 
   36300    929.03491   -4012.7595   -4166.3511    387.71146    20.075741    948.18956    194.86908    16.505567    16.505567    82.527836 
   36400    948.92355   -4012.7634    -4169.643   -114.67381    -1049.581    10.451783    695.10781    16.505327    16.505327    82.526637 
   36500    946.88704    -4012.784   -4169.3269   -54.201939   -898.65801     312.1832    423.86899    16.504599    16.504599    82.522996 
   36600    940.26856   -4012.8134   -4168.2621    455.15788    1081.5292   -726.80129    1010.7458    16.503672    16.503672    82.518359 
   36700    938.16359   -4012.8621   -4167.9628    416.27045    587.93977    302.64606    358.22553     16.50291     16.50291    82.514549 
   36800    935.28125   -4012.8931   -4167.5173    947.90943      295.933    1238.3474    1309.4479    16.502724    16.502724    82.513618 
   36900    953.78543   -4012.9105   -4170.5939    138.22179    442.43304   -616.99844    589.23076    16.503652    16.503652    82.518262 
   37000    975.61824   -4012.9003   -4174.1932   -873.16325   -694.66669   -418.10832   -1506.7147    16.505394    16.505394    82.526972 
   37100    947.36003     -4012.91   -4169.5311   -267.60585    -173.4416   -699.64898    70.273018    16.506491    16.506491    82.532455 
   37200    941.12955   -4012.9273   -4168.5183   -201.27458   -213.85171   -445.64428    55.672253    16.507042    16.507042    82.535209 
   37300     956.9887   -4012.9455   -4171.1585   -537.31771   -517.94755   -1485.8829    391.87729    16.506988    16.506988    82.534942 
   37400    945.42486   -4012.9665   -4169.2676   -62.364262   -587.69839    1423.9244   -1023.3188     16.50613     16.50613    82.530651 
   37500    956.00515   -4012.9782   -4171.0285   -253.01002   -1183.0636    -593.2528    1017.2864    16.504895    16.504895    82.524473 
   37600    931.20965   -4012.9897   -4166.9407    634.16836    397.16835    1423.1661    82.170631    16.503411    16.503411    82.517057 
   37700    951.76347   -4012.9716   -4170.3207    27.701811    247.84725    315.43813   -480.17994    16.502658    16.502658     82.51329 
   37800    948.79705   -4012.9586   -4169.8172    354.48623    -1058.698    651.57173     1470.585    16.502264    16.502264    82.511321 
   37900    964.54615   -4012.9458   -4172.4082   -198.25691     1125.876   -377.82935   -1342.8174    16.502781    16.502781    82.513907 
   38000    940.35255   -4012.9389   -4168.4014    277.64588    389.14356    -817.8323    1261.6264    16.503859    16.503859    82.519297 
   38100    955.12262   -4012.9439   -4170.8483    107.53031   -475.50037    431.73531      366.356    16.504967    16.504967    82.524836 
   38200    926.64307   -4012.9548   -4166.1509    550.76358    863.82553   -351.64613    1140.1114    16.505965    16.505965    82.529823 
   38300     926.3704   -4012.9518   -4166.1028    236.62653   -2.5705736    147.12888    565.32129    16.507117    16.507117    82.535587 
   38400    968.31695   -4012.9542     -4173.04   -873.18298   -134.20933   -1356.4173   -1128.9223    16.507535    16.507535    82.537674 
   38500    950.18408   -4012.9667   -4170.0547   -412.93978   -306.62884   -1456.6485      524.458    16.506815    16.506815    82.534075 
   38600    959.47202   -4012.9601   -4171.5836   -652.66076   -406.51016   -318.01381   -1233.4583    16.505898    16.505898    82.529488 
   38700    947.04702   -4012.9657    -4169.535    70.225664    1041.9023   -432.73915   -398.48614    16.504303    16.504303    82.521516 
   38800    954.56516   -4012.9559   -4170.7682    176.36703    1603.9335    71.617495   -1146.4499    16.502887    16.502887    82.514437 
   38900    946.46334   -4012.9482   -4169.4211    508.02489   -170.82686    925.47174     769.4298    16.501707    16.501707    82.508536 
   39000    959.32865   -4012.9437   -4171.5434    57.421324    179.96962   -139.25221    131.54655    16.501212    16.501212     82.50606 
   39100    944.98029   -4012.9568   -4169.1844    719.07788    864.39911    623.01924    669.81527    16.501024    16.501024    82.505121 
   39200    928.29357   -4012.9552   -4166.4241    833.99017    1873.0431     884.4763   -255.54889    16.502121    16.502121    82.510607 
   39300    939.42828   -4012.9414   -4168.2512    511.94152    488.02784    467.44111    580.35562    16.504032    16.504032     82.52016 
   39400    946.76813   -4012.9485   -4169.4718   -282.89489    5.4319805   -1259.7258    405.60913    16.505818    16.505818     82.52909 
   39500    941.10478   -4012.9457   -4168.5327   -5.0851943    383.38442    4.5312244   -403.17123    16.507143    16.507143    82.535713 
   39600    932.58346   -4012.9349   -4167.1131   -139.17883   -1642.6782    -118.4224    1343.5641    16.507787    16.507787    82.538934 
   39700    960.54122   -4012.9113   -4171.7115    -740.7222    829.84255    -1334.145   -1717.8641    16.507659    16.507659    82.538293 
   39800    966.98908   -4012.8872   -4172.7534   -698.82665   -653.53546   -288.13736   -1154.8071    16.506508    16.506508    82.532541 
   39900    946.90723   -4012.8925   -4169.4387   -170.78129    809.39852   -508.50767   -813.23471    16.504282    16.504282    82.521408 
   40000    961.69585   -4012.8871   -4171.8783   -308.49746    759.87371   -996.99001   -688.37608    16.501957    16.501957    82.509783 
   40100    971.29619   -4012.8771   -4173.4554   -96.145983   -23.944738   -785.26128    520.76807    16.500157    16.500157    82.500784 
   40200    940.66892   -4012.8846   -4168.3995    764.25869    655.29925    616.42216    1021.0546     16.49931     16.49931    82.496548 
   40300    973.30687   -4012.8955   -4173.8062   -276.59701    151.05708    226.47966   -1207.3278    16.499861    16.499861    82.499306 
   40400    938.20644   -4012.9292   -4168.0369    669.58413     900.6717    244.52522    863.55546    16.501004    16.501004     82.50502 
   40500     957.8251   -4012.9647   -4171.3159    52.615261    -365.4092     164.6364    358.61859    16.502925    16.502925    82.514625 
   40600    965.88001   -4013.0017   -4172.6846   -613.82922    211.30426   -209.56547   -1843.2265    16.505134    16.505134    82.525668 
   40700    937.71604    -4013.011   -4168.0377   -208.05018    501.76739   -1113.6741   -12.243836    16.507337    16.507337    82.536686 
   40800    934.08333   -4013.0118    -4167.438   -221.93015    1227.4113    -1762.775   -130.42676    16.508654    16.508654    82.543271 
   40900    959.61791   -4013.0068   -4171.6544   -747.74013    -1704.379   -720.40034    181.55898    16.508538    16.508538    82.542692 
   41000    938.32642   -4013.0008   -4168.1284    -86.19499    1896.2333   -1250.3876   -904.43063    16.507197    16.507197    82.535983 
   41100    958.62949     -4012.97   -4171.4542   -693.99956   -1287.3248    114.46765   -909.14156    16.505552    16.505552    82.527761 
   41200    944.87293   -4012.9628   -4169.1727    417.21122   -174.58154    776.86261    649.35259    16.503001    16.503001    82.515004 
   41300    953.46587   -4012.9531   -4170.5836    150.41472    391.88762    823.43687   -764.08035    16.501061    16.501061    82.505306 
   41400    915.42837   -4012.8999   -4164.2419    1510.4476    2446.3448    -29.47377    2114.4718    16.500887    16.500887    82.504434 
   41500    945.76155   -4012.8421    -4169.199    517.51583    1048.7112     150.9197    352.91663     16.50219     16.50219    82.510949 
   41600    932.37848   -4012.8234   -4166.9677    656.17854    1500.5845   -19.681976    487.63307    16.503637    16.503637    82.518184 
   41700    945.50491   -4012.8129   -4169.1273   -7.1175273   -586.37763   -878.13151    1443.1566    16.505414    16.505414    82.527071 
   41800    931.73763   -4012.8027    -4166.841    151.16333    501.80179    -491.2149    442.90309    16.507218    16.507218     82.53609 
   41900     964.7239   -4012.7744   -4172.2662   -769.06637    512.99356   -2212.9317   -607.26099    16.508726    16.508726    82.543631 
   42000    934.47336   -4012.7624    -4167.253    85.272652    73.222028    -966.9441      1149.54    16.508918    16.508918    82.544591 
   42100    954.12736   -4012.7446   -4170.4845   -486.30522   -457.80484   -1253.9417    252.83087    16.508389    16.508389    82.541947 
   42200    923.18128   -4012.7385   -4165.3623    288.39487    314.10902   -441.57106    992.64665    16.506762    16.506762     82.53381 
   42300    975.66746   -4012.7007   -4174.0017   -590.31175     -1841.51   -1664.6097    1735.1845    16.505074    16.505074    82.525371 
   42400    930.30327   -4012.6893   -4166.4905    774.52678    644.21719   -155.39848    1834.7616    16.503019    16.503019    82.515095 
   42500    937.91858    -4012.675   -4167.7352    532.72741    713.86406   -281.45769    1165.7759    16.501681    16.501681    82.508405 
   42600    933.95182   -4012.6427   -4167.0471    821.01346    682.55465   -237.87637    2018.3621    16.501578    16.501578     82.50789 
   42700    944.48588   -4012.6245   -4168.7704     327.7292     1286.492   -181.02896   -122.27543    16.502372    16.502372    82.511862 
   42800    971.52533   -4012.6047   -4173.2209    -438.3629   -491.61896   -835.89596    12.426233    16.503773    16.503773    82.518863 
   42900    931.44852   -4012.6126   -4166.6031    581.51996    843.87445    348.15147    552.53396    16.504979    16.504979    82.524897 
   43000    962.74204   -4012.6186   -4171.7827   -447.46487    423.87532    -937.3789   -828.89103    16.506441    16.506441    82.532206 
   43100    955.88171   -4012.6341    -4170.664   -436.45495   -556.11482   -663.12737   -90.122653    16.507239    16.507239    82.536197 
   43200    956.08438   -4012.6467   -4170.7101   -110.29234     815.2303   -703.07164   -443.03567    16.507553    16.507553    82.537764 
   43300    940.08061   -4012.6785   -4168.0962    194.59857   -537.16875   -98.820794    1219.7853    16.507138    16.507138    82.535688 
   43400    962.92573   -4012.6821   -4171.8765   -724.98889   -71.749587    -1621.218   -481.99912    16.506875    16.506875    82.534375 
   43500     942.6066   -4012.6787   -4168.5139   -215.67641   -559.77525    102.85192   -190.10591    16.506096    16.506096    82.530482 
   43600    966.32117   -4012.6624   -4172.4182    -191.1454     398.5841   -1176.2267    204.20646    16.505002    16.505002    82.525012 
   43700    957.96943   -4012.6521   -4171.0271     -241.301   -1285.6369   -19.295028    581.02891     16.50393     16.50393    82.519648 
   43800    932.99053   -4012.6649   -4166.9104    849.98489    313.57539    510.34667    1726.0326    16.502806    16.502806    82.514031 
   43900    919.35722   -4012.6729   -4164.6645    1144.4456    1357.9212   -251.24126     2326.657    16.502697    16.502697    82.513487 
   44000    956.51339    -4012.647   -4170.7813   -81.923795   -806.85772   -276.67886    837.76519    16.503928    16.503928    82.519642 
   44100    934.19691   -4012.6422   -4167.0871    318.58751    482.45086   -536.62294    1009.9346    16.504992    16.504992    82.524962 
   44200    975.31487   -4012.6173     -4173.86   -864.34025   -538.60173   -1880.4517   -173.96733    16.506308    16.506308    82.531542 
   44300    938.74738   -4012.6006   -4167.7978    155.57359   -546.56149   -7.0634384    1020.3457     16.50689     16.50689    82.534448 
   44400    943.25083   -4012.5748   -4168.5165   -50.115045   -880.59591    725.16782    5.0829502    16.506975    16.506975    82.534875 
   44500    965.18232   -4012.5491   -4172.1166   -543.59444   -1519.7302    260.75554    -371.8087    16.506448    16.506448    82.532242 
   44600     946.6276   -4012.5426   -4169.0426    185.08872    518.38409   -161.62884    198.51092    16.505084    16.505084    82.525422 
   44700    936.78425   -4012.5628   -4167.4354    288.26227    -302.7873    451.33476    716.23935    16.503619    16.503619    82.518097 
   44800    964.65808   -4012.5755   -4172.0563   -122.37505   -521.29424    -512.7835    666.95258    16.502798    16.502798    82.513988 
   44900    967.17368   -4012.5804   -4172.4772   -195.49958   -1370.2164    1254.7212   -471.00351    16.502689    16.502689    82.513447 
   45000    933.98206    -4012.584   -4166.9934    452.11223   -1668.2741    683.24725    2341.3636    16.502988    16.502988     82.51494 
   45100    953.66555   -4012.5935    -4170.257    253.52934    66.974977     102.2698    591.34325    16.503664    16.503664    82.518322 
   45200    930.03993   -4012.6118   -4166.3695     622.3991   -382.23239    1412.5704    836.85933    16.504661    16.504661    82.523307 
   45300    958.97586   -4012.6376   -4171.1791   -145.20026    339.50576   -443.45992   -331.64663     16.50584     16.50584      82.5292 
   45400    950.61955   -4012.6736   -4169.8336   -355.56764   -548.45367   -1044.9635    526.71422    16.506783    16.506783    82.533915 
   45500    966.98141   -4012.6787   -4172.5437   -1009.4071   -1119.9039    187.18163    -2095.499    16.507603    16.507603    82.538015 
   45600    918.94339    -4012.689   -4164.6122    727.40667    1797.1686    390.91762    -5.866215    16.507422    16.507422    82.537108 
   45700    960.14345   -4012.6961   -4171.4306   -502.50322   -311.10833   -201.56881   -994.83252    16.506681    16.506681    82.533407 
   45800    957.00164   -4012.7116   -4170.9267   -307.87443    828.32283   -1174.6206    -577.3255    16.505143    16.505143    82.525716 
   45900    947.94598   -4012.6972   -4169.4152    303.98554    52.955766   -493.86416     1352.865    16.503746    16.503746    82.518732 
   46000    928.71131   -4012.6939   -4166.2319    955.53742    509.59494    996.40562    1360.6117    16.502489    16.502489    82.512444 
   46100    963.47721   -4012.6943   -4171.9799    43.176107    289.39037    465.86648   -625.72853    16.502298    16.502298    82.511489 
   46200    986.86995   -4012.7099   -4175.8629    -793.2299    -459.7851   -1119.2648    -800.6398    16.502678    16.502678    82.513392 
   46300    944.66291   -4012.7178    -4168.893    243.97046     869.3264   -1125.5151    988.10011    16.503508    16.503508    82.517538 
   46400    924.07457   -4012.6985   -4165.4699    809.96443    838.44581     1214.942    376.50547    16.505092    16.505092    82.525461 
   46500    933.23425   -4012.6864   -4166.9722    220.95453   -170.85337    673.20784     160.5091    16.506559    16.506559    82.532797 
   46600    926.32245   -4012.6789    -4165.822    35.339247   -374.81827   -610.16624    1091.0023    16.507497    16.507497    82.537487 
   46700    920.10363   -4012.6675   -4164.7825    415.17777    906.02762    938.55104   -599.04537    16.507794    16.507794     82.53897 
   46800    968.63702   -4012.6428   -4172.7815    -684.0488    -1258.817   -317.21226   -476.11711    16.507687    16.507687    82.538433 
   46900    929.87727   -4012.6674   -4166.3982    341.81587     274.0732    746.49385    4.8805476    16.506244    16.506244    82.531218 
   47000    940.04527   -4012.6764   -4168.0882    398.92003    390.67828   -202.25823      1008.34    16.504704    16.504704    82.523521 
   47100    935.05891   -4012.6801   -4167.2675    531.12524   -189.38454    202.36214    1580.3981    16.503371    16.503371    82.516855 
   47200    970.82694   -4012.6845   -4173.1852   -291.42633    1371.2733   -494.22453   -1751.3278    16.502464    16.502464    82.512322 
   47300    921.87944   -4012.6836   -4165.0921    949.11678    1429.0268    765.71614    652.60741    16.502239    16.502239    82.511195 
   47400    966.16492    -4012.667    -4172.397   -186.34361   -1329.6654    680.34139    90.293162    16.503117    16.503117    82.515583 
   47500     922.5334   -4012.6607   -4165.1773    1081.5206    554.95219    1441.1676    1248.4421    16.504197    16.504197    82.520985 
   47600    934.17884   -4012.6744   -4167.1163    298.86974    466.29968    1276.7534   -846.44388    16.505477    16.505477    82.527387 
   47700    968.94404   -4012.6843   -4172.8737   -901.05378   -2943.5445    74.943036    165.44009    16.506651    16.506651    82.533256 
   47800     963.3215   -4012.6724   -4171.9323   -637.12682   -1096.0953   -690.82859   -124.45654    16.507784    16.507784    82.538922 
   47900     935.4521   -4012.6642   -4167.3166    158.38191   -403.95109    2051.2627   -1172.1659    16.508263    16.508263    82.541316 
   48000    934.14672   -4012.6547   -4167.0913   -139.71167     841.7399   -962.04109   -298.83384    16.508059    16.508059    82.540295 
   48100    945.04959   -4012.6332   -4168.8723    63.767152    519.61346   -68.725886   -259.58611    16.507184    16.507184     82.53592 
   48200    948.48022   -4012.6126   -4169.4189     235.4417    475.19506    354.70154   -123.57151    16.505894    16.505894    82.529471 
   48300    948.33364   -4012.5988   -4169.3809    14.195381   -106.04573    899.32643   -750.69456    16.504419    16.504419    82.522094 
   48400    918.52616   -4012.6048    -4164.459    1149.6971    1449.8645    1687.5487    311.67794    16.502799    16.502799    82.513994 
   48500    926.48704   -4012.5825   -4165.7528     861.4269    220.07107    1452.2986    911.91101    16.502632    16.502632    82.513161 
   48600    945.42859   -4012.5456   -4168.8474   -58.842675    231.39127   -715.00764    307.08834    16.503463    16.503463    82.517317 
   48700     978.0807    -4012.526   -4174.2259   -663.11598   -683.78701   -224.86943   -1080.6915    16.504341    16.504341    82.521706 
   48800    955.72505   -4012.5157   -4170.5197   -346.40153   -247.88727    529.74585   -1321.0632    16.505118    16.505118    82.525589 
   48900    912.92276    -4012.517   -4163.4448    727.93793    942.38771   -91.111063    1332.5371    16.505591    16.505591    82.527955 
   49000    924.99881   -4012.4957   -4165.4199    467.83457      419.702   -135.72944    1119.5311    16.506272    16.506272     82.53136 
   49100    956.03344   -4012.4558   -4170.5108   -506.08761   -31.584675    -1052.587   -434.09116    16.506739    16.506739    82.533697 
   49200    931.10568   -4012.4458   -4166.3797    694.50186    1196.5757     -694.553    1581.4829    16.505998    16.505998     82.52999 
   49300    942.61708   -4012.4232   -4168.2602     400.5195    1329.1395    552.50114   -680.08214    16.505589    16.505589    82.527945 
   49400    964.56172   -4012.4206   -4171.8855   -413.50602   -76.689044   -2129.8099    965.98085    16.505206    16.505206    82.526028 
   49500      960.266   -4012.4395   -4171.1943    69.558614    2034.2429    -2091.528    265.96093    16.504727    16.504727    82.523636 
   49600    965.67697   -4012.4607     -4172.11   -241.15452    315.45052    -1269.808     230.8939    16.504694    16.504694    82.523472 
   49700    937.28655   -4012.4978   -4167.4535    468.00355    384.84651    72.156016    947.00813    16.504572    16.504572    82.522858 
   49800    937.53129   -4012.5274   -4167.5236    546.05041    739.09155    726.48565    172.57402    16.504686    16.504686    82.523429 
   49900    977.09214   -4012.5568   -4174.0933   -689.73902    470.96481   -2702.5158    162.33391     16.50521     16.50521    82.526049 
   50000    957.95994   -4012.5966   -4170.9701   -150.89578   -1012.3348   -639.97542    1199.6229    16.505568    16.505568    82.527842 
Loop time of 243.568 on 1 procs for 50000 steps with 1280 atoms

Pair  time (%) = 215.186 (88.3476)
Neigh time (%) = 19.5764 (8.03735)
Comm  time (%) = 3.29893 (1.35442)
Outpt time (%) = 0.111371 (0.0457248)
Other time (%) = 5.39492 (2.21495)

Nlocal:    1280 ave 1280 max 1280 min
Histogram: 1 0 0 0 0 0 0 0 0 0
Nghost:    4001 ave 4001 max 4001 min
Histogram: 1 0 0 0 0 0 0 0 0 0
Neighs:    47240 ave 47240 max 47240 min
Histogram: 1 0 0 0 0 0 0 0 0 0

Total # of neighbors = 47240
Ave neighs/atom = 36.9062
Neighbor list builds = 5000
Dangerous builds = 0
unfix		1

# Melt half the system
region  liquid block INF INF INF INF INF ${nzhalf}
region  liquid block INF INF INF INF INF 10
group	liquid_group region liquid
640 atoms in group liquid_group

# Heat up one side to Tmelt to make sure it is melted
fix 2 liquid_group npt temp ${Tmelt} ${Tmelt} 1 z 0 0 10 drag 1.0
fix 2 liquid_group npt temp 2000 ${Tmelt} 1 z 0 0 10 drag 1.0
fix 2 liquid_group npt temp 2000 2000 1 z 0 0 10 drag 1.0
run		${eqsteps}
run		50000
Memory usage per processor = 3.13778 Mbytes
Step Temp TotEng PotEng Press Pxx Pyy Pzz Lx Ly Lz 
   50000    957.95994   -4012.5966   -4170.9701   -150.89578   -1012.3348   -639.97542    1199.6229    16.505568    16.505568    82.527842 
   50100    992.12948    -4012.222   -4176.2446   -859.22283   -1886.1922   -190.44285   -501.03345    16.505568    16.505568    82.528108 
   50200    948.84105   -4011.2111    -4168.077    363.12927   -795.91329    770.09523    1115.2059    16.505568    16.505568    82.528667 
   50300    974.60142   -4009.8442    -4170.969     151.5835   -698.03806    507.71765    645.07091    16.505568    16.505568    82.529625 
   50400    963.41094   -4008.4349   -4167.7095    620.94106    293.37157    478.54216    1090.9094    16.505568    16.505568    82.530727 
   50500     981.0524    -4007.169   -4169.3603    295.77382    105.48517     247.9039    533.93238    16.505568    16.505568    82.532267 
   50600    964.23531   -4005.9018   -4165.3128    982.77426    109.04964    875.57657    1963.6966    16.505568    16.505568    82.534273 
   50700    986.30658   -4004.6043   -4167.6641    640.03739     278.0013    942.88547    699.22541    16.505568    16.505568    82.536739 
   50800    987.56664   -4003.2281   -4166.4963    937.58551    522.80239    486.92701    1803.0271    16.505568    16.505568    82.539794 
   50900    973.37276   -4001.8101   -4162.7317     1493.148    899.45601    1062.6543    2517.3336    16.505568    16.505568    82.543705 
   51000    1008.1842   -4000.3457   -4167.0224    817.05181    830.36566    875.65553    745.13424    16.505568    16.505568    82.548355 
   51100    991.50929   -3998.8542   -4162.7742    1360.6752    2512.1245    522.20511     1047.696    16.505568    16.505568      82.5535 
   51200    1015.1878   -3997.3866   -4165.2213    1185.7224    1850.8763    44.666859    1661.6239    16.505568    16.505568    82.559148 
   51300    1018.2968   -3995.8955   -4164.2441    1244.9345    599.17958    735.17366    2400.4503    16.505568    16.505568    82.565671 
   51400    1015.7869    -3994.381   -4162.3147    1691.9738    1471.8959    1186.8212    2417.2041    16.505568    16.505568    82.573254 
   51500    1024.7623   -3992.8658   -4162.2833    1689.4044    1965.6641    1163.1027    1939.4462    16.505568    16.505568    82.581755 
   51600    1022.0239   -3991.3266   -4160.2914    1842.4087    1737.1204    681.10234    3109.0033    16.505568    16.505568    82.591298 
   51700    1011.8263   -3989.8069   -4157.0858    2600.6667    3364.3426    1250.0208    3187.6367    16.505568    16.505568    82.602372 
   51800    1023.1227   -3988.2907   -4157.4372    2243.0287    1359.8354    2564.1162    2805.1346    16.505568    16.505568    82.614873 
   51900    1046.4363   -3986.7314   -4159.7322    1853.6277    1394.0458    1246.0921    2920.7453    16.505568    16.505568    82.628581 
   52000      1047.18   -3985.1539   -4158.2776    2056.1918    1105.7582    1994.3431     3068.474    16.505568    16.505568     82.64351 
   52100    1027.8038   -3983.5795   -4153.4998    2927.6072    2685.6249    2714.5096     3382.687    16.505568    16.505568    82.659859 
   52200    1064.2453    -3981.994    -4157.939    1998.9792    1896.6616    1507.9356    2592.3404    16.505568    16.505568    82.677529 
   52300    1028.4407   -3980.4038   -4150.4295    3107.8421    2622.1485    2065.8561    4635.5216    16.505568    16.505568     82.69641 
   52400    1054.1094   -3978.8142   -4153.0835    2644.7667    3346.3443    1910.3537    2677.6022    16.505568    16.505568    82.717074 
   52500       1061.5   -3977.1905   -4152.6817     2827.812    2605.9902     3534.698    2342.7479    16.505568    16.505568    82.738811 
   52600    1068.2769   -3975.5903   -4152.2019    2709.1322    2130.5762    1616.6372    4380.1831    16.505568    16.505568    82.761564 
   52700    1060.2524   -3973.9464   -4149.2313    2927.0573    1817.1789    3001.7081     3962.285    16.505568    16.505568    82.785922 
   52800    1087.8906   -3972.3254   -4152.1795    2250.2536     1022.657    2948.7054    2779.3985    16.505568    16.505568    82.811708 
   52900    1042.2585    -3970.695   -4143.0051    3429.1118    3295.3648    3313.6602    3678.3103    16.505568    16.505568    82.838688 
   53000    1085.8164   -3969.0659   -4148.5771    2434.1509    636.42387    2858.8896    3807.1391    16.505568    16.505568    82.866892 
   53100    1083.9653   -3967.4053   -4146.6105    2332.3533    2525.0488    1485.9271    2986.0839    16.505568    16.505568    82.896432 
   53200    1074.4702   -3965.7575   -4143.3929    2956.3629    3025.2932    3013.8192    2829.9764    16.505568    16.505568    82.926898 
   53300     1107.063   -3964.0701   -4147.0939    2482.5834    2526.1113    3146.4527    1775.1862    16.505568    16.505568    82.958277 
   53400    1097.7846   -3962.3917   -4143.8815    2553.9182    2980.5782    1143.2592    3537.9171    16.505568    16.505568    82.990388 
   53500    1101.8119   -3960.7076   -4142.8633    2595.7628    2553.7582    2888.6272    2344.9031    16.505568    16.505568    83.023615 
   53600     1100.574   -3959.0389   -4140.9899    2826.4718    1876.9209    2566.2129    4036.2816    16.505568    16.505568    83.057564 
   53700    1108.4306   -3957.3519   -4140.6018    2683.4843    2523.1328    2656.3567    2870.9632    16.505568    16.505568    83.092467 
   53800    1134.8408    -3955.647   -4143.2631    1966.1382    2354.9499    2529.5431    1013.9216    16.505568    16.505568    83.128164 
   53900    1143.6146    -3953.931   -4142.9976    1906.7012    797.79634    2994.1398    1928.1673    16.505568    16.505568    83.164443 
   54000    1142.6257   -3952.2284   -4141.1316    1838.0773    822.70134    2519.6913    2171.8394    16.505568    16.505568    83.201438 
   54100    1113.3528   -3950.4944   -4134.5581    2660.6823    2565.8568    2526.1036    2890.0864    16.505568    16.505568    83.239062 
   54200    1138.6196   -3948.7923   -4137.0331     2188.056    2991.2766     2251.258    1321.6334    16.505568    16.505568    83.277339 
   54300      1104.45   -3947.0391   -4129.6309    3005.1636    2723.4492    3574.5688    2717.4726    16.505568    16.505568    83.315969 
   54400    1149.0059   -3945.3032   -4135.2611    1876.3979    1843.5711    2320.2588    1465.3639    16.505568    16.505568    83.355034 
   54500    1136.2655   -3943.5664    -4131.418    2146.1403    2621.0394    2064.6178    1752.7637    16.505568    16.505568    83.394499 
   54600    1166.2805   -3941.8133   -4134.6271    1418.9569    1855.6731    1429.9808    971.21679    16.505568    16.505568    83.434155 
   54700    1163.4481   -3940.0318   -4132.3774    1772.4258    2601.5439    1776.4822    939.25124    16.505568    16.505568    83.473881 
[...]
  336300    929.48871   -4020.0234     -4173.69   -617.22043   -555.36235   -523.19123   -773.10772    16.465247    16.465247    82.877084 
  336400    935.05412   -4020.0234   -4174.6101   -840.67621    -889.3579   -1568.1033   -64.567482    16.465222    16.465222    82.900045 
  336500    926.13944   -4020.0234   -4173.1362   -506.17261   -643.09852    -1175.252    299.83271    16.465067    16.465067    82.888195 
  336600    950.16747   -4020.0268   -4177.1121   -705.56689   -1123.0276   -451.19939    -542.4737    16.464837    16.464837    82.841046 
  336700    946.56614   -4020.0287   -4176.5186   -205.33979    894.21095   -327.20585   -1183.0245    16.464542    16.464542    82.780433 
  336800     921.8435   -4020.0266   -4172.4292    1117.9225   -1.9615349    1889.8879     1465.841    16.464382    16.464382    82.702869 
  336900    920.73286    -4020.026   -4172.2449    976.76101    932.99638    1074.3639    922.92277    16.464426    16.464426    82.727734 
  337000    952.40012   -4020.0348   -4177.4892   -585.35608   -355.98883   -220.29379   -1179.7856    16.464541    16.464541    82.823529 
  337100    924.74486   -4020.0287   -4172.9109     -592.538    290.14956   -644.77369   -1422.9899    16.464588    16.464588    82.889007 
  337200    928.93334     -4020.03   -4173.6047   -458.70036   -1186.9354    535.20027   -724.36593    16.464492    16.464492    82.873102 
  337300     947.8539   -4020.0393   -4176.7421   -308.56606   -514.69094    1470.7427     -1881.75    16.464317    16.464317    82.792641 
  337400    937.16812   -4020.0338   -4174.9699     292.0962    563.93753    994.34611   -681.99503    16.464243    16.464243    82.728689 
  337500    917.86891   -4020.0318   -4171.7774    1015.5449    1038.4816    1168.1434    840.00976    16.464311    16.464311    82.746594 
  337600    916.58307   -4020.0327   -4171.5656    306.99241   -325.72243    810.85003    435.84963    16.464451    16.464451    82.790777 
  337700    926.11625   -4020.0326   -4173.1416   -36.542118   -975.90043    431.61312    434.66096    16.464582    16.464582    82.829554 
  337800    951.44149   -4020.0343   -4177.3301   -914.29357   -799.02935   -1029.7174   -914.13397    16.464665    16.464665     82.86014 
  337900    910.69353   -4020.0327   -4170.5919    392.79563    833.76733    722.76199   -378.14243    16.464718    16.464718    82.835237 
  338000    937.83347    -4020.039   -4175.0851    19.384982   -325.44634    1362.4595   -978.85822    16.464803    16.464803    82.769687 
  338100    938.70597   -4020.0495   -4175.2398    1130.2671    1724.6953    1487.3499    178.75602    16.464973    16.464973    82.655532 
  338200    941.40091   -4020.0438   -4175.6797     1460.698    1684.8024    1450.9564    1246.3353    16.465392    16.465392    82.613041 
  338300    950.95501   -4020.0472   -4177.2627    262.93984     866.5053    844.03947   -921.72526    16.466055    16.466055    82.696286 
  338400    937.93174   -4020.0443   -4175.1066     156.4069    606.76977    990.77592    -1128.325    16.466824    16.466824    82.756059 
  338500    929.95807   -4020.0444   -4173.7885    51.028427    402.97379   -760.34039    510.45188    16.467577    16.467577    82.741437 
  338600    902.39021   -4020.0431   -4169.2296     611.6951    533.96602    404.58179    896.53748    16.468192    16.468192    82.740501 
  338700    923.83876   -4020.0533   -4172.7858   -46.184969   -1408.4667   -924.52028    2194.4321    16.468679    16.468679    82.781443 
  338800    935.26326   -4020.0512   -4174.6724   -1543.1979   -2005.8579   -1154.7529   -1468.9828    16.468936    16.468936    82.915462 
  338900    925.29546   -4020.0511   -4173.0244   -1071.1422   -496.53109   -1141.4232   -1575.4723    16.468903    16.468903     82.92315 
  339000    900.14951   -4020.0664   -4168.8825    421.76835    845.83185    691.32145   -271.84824     16.46866     16.46866    82.802652 
  339100    945.53375   -4020.0757   -4176.3949    369.81985    1100.9607   -477.80496    486.30378    16.468441    16.468441     82.63916 
  339200    939.41833   -4020.0654   -4175.3736    1580.8541    2449.2661    1099.9713     1193.325    16.468544    16.468544    82.525425 
  339300    937.44474   -4020.0752   -4175.0571    1769.6757    3396.6483    190.38391     1721.995    16.469058    16.469058    82.539256 
  339400    931.61608   -4020.0856   -4174.1039    13.734115   -403.66587     2093.375   -1648.5068    16.469812    16.469812    82.708461 
  339500    902.09769   -4020.0724   -4169.2106    679.04391    492.67873    864.00846    680.44454    16.470648    16.470648    82.774975 
  339600    922.57494   -4020.0766   -4172.6001   -190.68943    1281.9846   -485.20079   -1368.8521    16.471405    16.471405    82.778157 
  339700    923.40692    -4020.085   -4172.7461    668.07878    799.73145    758.86625    445.63864    16.472109    16.472109    82.677954 
  339800    952.86829   -4020.0797   -4177.6114    457.54903    557.29417    483.00229    332.35062    16.472829    16.472829    82.617409 
  339900    907.87097   -4020.0808   -4170.1734    1570.7208    1324.1574    1561.3479     1826.657     16.47364     16.47364    82.595651 
  340000     912.0505   -4020.0829   -4170.8665    982.30814    1329.4899     1104.697    512.73752    16.474605    16.474605    82.644172 
  340100    953.46932   -4020.0857   -4177.7168   -531.68122   -67.678475   -1012.1611   -515.20411    16.475546    16.475546    82.688119 
  340200     912.3663   -4020.0827   -4170.9185    451.55984    558.85024   -514.12773     1309.957    16.476335    16.476335     82.69728 
  340300    911.89318    -4020.082   -4170.8396    205.19791   -59.588604    410.79689    264.38544    16.476974    16.476974    82.723593 
  340400    941.29087   -4020.0842   -4175.7019   -792.91434   -137.97643   -826.49348   -1414.2731    16.477492    16.477492    82.747063 
  340500    923.13041   -4020.0865   -4172.7019    116.37822    45.408633    443.84446   -140.11843    16.477879    16.477879    82.693821 
  340600    932.54712   -4020.0865   -4174.2587    126.70148   -528.71426    1302.8704   -394.05166    16.478212    16.478212    82.651369 
  340700     909.9922   -4020.0896   -4170.5329    1222.6237    1308.0398    585.49689    1774.3344      16.4786      16.4786    82.563563 
  340800    935.76681   -4020.0869   -4174.7913    979.12148     1085.567    1786.5701    65.227414    16.479107    16.479107    82.540077 
  340900    919.54035   -4020.0972   -4172.1191    570.45923    1326.9273    1225.0007   -840.55027    16.479722    16.479722    82.590414 
  341000    937.17122   -4020.0922   -4175.0288    -435.4339   -651.33892    282.60407   -937.56687    16.480395    16.480395    82.639664 
  341100    925.79688   -4020.0904   -4173.1466    209.82343    881.28487   -548.22569    296.41112    16.481021    16.481021    82.634743 
  341200    910.28298   -4020.0956    -4170.587    720.51267    1145.1917    745.39667    270.94964    16.481587    16.481587    82.607364 
  341300    962.92839    -4020.096   -4179.2909    -234.4387   -414.96585    1340.9667   -1629.3169    16.482214    16.482214    82.547908 
  341400    893.68207   -4020.0974   -4167.8442    2106.2804    2414.5693    3054.0866    850.18534    16.482942    16.482942    82.461244 
  341500    936.51925   -4020.0995   -4174.9284     1539.297    837.95563    1534.4121    2245.5233    16.483944    16.483944     82.40264 
  341600    959.98912   -4020.1099   -4178.8188    604.70871   -131.79231    1796.1809    149.73759    16.485132    16.485132    82.443142 
  341700    919.86028   -4020.1107   -4172.1855    509.22002    1297.7398    717.39505   -487.47478    16.486448    16.486448    82.522563 
  341800    925.86518   -4020.1099   -4173.1774    61.178616   -755.12309     1575.544   -636.88511     16.48776     16.48776    82.571447 
  341900    911.56594   -4020.1105   -4170.8139    712.27518    367.52536    716.23294    1053.0672    16.488968    16.488968    82.547323 
  342000    965.69503   -4020.1153   -4179.7676    -355.8358   -1534.4409    291.12711    175.80639    16.490077    16.490077    82.506071 
  342100    921.12191   -4020.1131   -4172.3965    701.47512    751.05009    888.54564    464.82964     16.49107     16.49107    82.496682 
  342200    936.58096    -4020.118   -4174.9571   -341.27723   -1365.5882     89.28494    252.47158    16.491961    16.491961    82.564431 
  342300    921.36227   -4020.1117   -4172.4348   -439.63499   -470.65923   -531.57922   -316.66652     16.49264     16.49264    82.601258 
  342400    926.05868    -4020.111   -4173.2105   -444.51293   -528.41912    -853.8915    48.771835    16.493074    16.493074     82.58972 
  342500    934.06718   -4020.1157   -4174.5392   -443.79735    -1420.559    389.10326   -299.93634    16.493294    16.493294    82.557951 
  342600    912.94264   -4020.1123   -4171.0433    347.59167   -89.044345     1031.126    100.69335     16.49338     16.49338    82.508006 
  342700    934.19843   -4020.1162   -4174.5614    -219.3183   -449.62494   -772.60099    564.27104    16.493434    16.493434    82.512844 
  342800     927.0958   -4020.1163   -4173.3873   -217.51312   -318.10565   -617.62887    283.19517    16.493449    16.493449    82.566902 
  342900    921.58231   -4020.1164   -4172.4758   -671.57664    -1381.435   -1122.8053    489.51043    16.493384    16.493384    82.616457 
  343000    940.44047   -4020.1156   -4175.5928   -1236.1059    -1894.672   -495.58736   -1318.0584    16.493081    16.493081    82.663773 
  343100    928.56687   -4020.1179   -4173.6321   -860.55343   -1166.3716   -1419.6202    4.3314884    16.492575    16.492575    82.635849 
  343200    918.81754   -4020.1168   -4172.0191   -150.94339     -669.074   -399.96143    616.20528    16.491876    16.491876    82.604918 
  343300    944.29663   -4020.1257   -4176.2403   -629.20071   -848.35788     740.7832   -1780.0275    16.491103    16.491103    82.568782 
  343400    938.86402   -4020.1268   -4175.3433    267.91606    1199.2879    313.10555   -708.64529    16.490421    16.490421     82.48654 
  343500    915.38912   -4020.1206   -4171.4561    1108.1532    636.14635    2038.6188    649.69438    16.489934    16.489934    82.440469 
  343600    950.25818   -4020.1274   -4177.2276   -133.25561   -727.07096    980.33758   -653.03343     16.48968     16.48968    82.487403 
  343700    938.76178   -4020.1222   -4175.3218    76.679599   -282.99415    921.94015   -408.90721     16.48958     16.48958    82.533374 
  343800    926.07873    -4020.122   -4173.2248    117.90034   -453.19692     654.8597    152.03823    16.489548    16.489548    82.552328 
  343900    932.49874   -4020.1216   -4174.2857    -161.3853    864.56576   -1892.5863    543.86469    16.489532    16.489532    82.556535 
  344000     899.3452    -4020.121   -4168.8041     754.2957    519.03382    1272.9605    470.89274    16.489521    16.489521    82.577728 
  344100    947.92174    -4020.125   -4176.8389    -816.3026   -753.19516   -2385.0693    689.35669    16.489484    16.489484     82.60119 
  344200    944.04063   -4020.1236   -4176.1959   -1270.0819   -484.41089   -712.19493   -2613.6399    16.489271    16.489271    82.672678 
  344300    923.01691   -4020.1325    -4172.729   -507.63105    36.240435   -1093.6441   -465.48946    16.488958    16.488958    82.609688 
  344400    943.06019   -4020.1257    -4176.036   -86.043393    -1654.236   -330.71458    1726.8204    16.488635    16.488635    82.546389 
  344500    923.09912   -4020.1295   -4172.7397    69.834405   -319.27606   -387.29043    916.06971    16.488271    16.488271    82.597202 
  344600    905.38068   -4020.1331    -4169.814   -133.34053    -426.6057    227.55391   -200.96979    16.487863    16.487863    82.678567 
  344700    918.41939     -4020.13   -4171.9665   -875.55049   -2164.7709    364.91225   -826.79282    16.487351    16.487351    82.708504 
  344800    947.94943   -4020.1454   -4176.8639   -717.45439   -814.00575   -1078.1901   -260.16736    16.486748    16.486748    82.625374 
  344900    935.72722   -4020.1398   -4174.8377    273.44758   -362.70137    681.64379     501.4003    16.486154    16.486154    82.525263 
  345000    910.49757    -4020.136   -4170.6628     1701.212    3280.2293    2609.1271   -785.72033    16.485679    16.485679    82.451167 
  345100    924.14727   -4020.1384   -4172.9219    1826.7876    4369.1056    1195.9414   -84.684264     16.48559     16.48559    82.377202 
  345200    934.06348   -4020.1403   -4174.5631    1775.7795    2583.2795    1971.5136    772.54532     16.48602     16.48602    82.346089 
  345300    940.55302   -4020.1593   -4175.6551    721.75634     255.1877    896.15561    1013.9257    16.486824    16.486824    82.441722 
  345400    907.67234   -4020.2023   -4170.2621   -246.63711   -367.09467   -821.38719    448.57054    16.487657    16.487657    82.644723 
  345500    905.30269   -4020.1605   -4169.8285    -1386.061   -757.13367   -1548.0945   -1852.9548    16.488267    16.488267     82.82701 
  345600    895.93225   -4020.1659   -4168.2848   -1084.8514   -550.23538   -2377.5211   -326.79787    16.488422    16.488422    82.790963 
  345700    942.01529   -4020.2147   -4175.9521   -975.26692   -162.12125   -1645.5408   -1118.1387    16.488165    16.488165     82.62409 
  345800    938.60489   -4020.1837   -4175.3574    482.01286    1325.6137   -692.98237    813.40719    16.487786    16.487786    82.441143 
  345900    929.65155   -4020.1779   -4173.8713    1328.9783    1592.4236    698.91894    1695.5925    16.487607    16.487607    82.390869 
  346000    921.86104   -4020.2158   -4172.6213    943.71416    125.16078    1025.0786    1680.9031    16.487713    16.487713    82.513169 
  346100    932.56895   -4020.2324   -4174.4082   -1441.4947   -1463.7566    -2360.448   -500.27941    16.487786    16.487786    82.744747 
  346200    933.92018   -4020.2098    -4174.609   -2632.3866   -3886.5377   -1252.8344   -2757.7878    16.487494    16.487494    82.904365 
  346300    900.29071   -4020.2592   -4169.0986   -971.80638   -1665.7128   -24.676091   -1225.0303    16.486809    16.486809    82.804553 
  346400    920.92353   -4020.2862   -4172.5367    668.47607    1328.5242     756.0037   -79.099682    16.485928    16.485928    82.521884 
  346500    946.02202   -4020.2513   -4176.6512    1567.0761    1016.3287    2137.7136     1547.186    16.485272    16.485272    82.324365 
  346600    926.73296   -4020.2542   -4173.4651    1892.4441    1483.2769    2803.4583     1390.597    16.485067    16.485067    82.346619 
  346700    928.69653   -4020.2693   -4173.8049    824.69259    178.77381    1689.1849    606.11902    16.485311    16.485311    82.503761 
  346800    949.57768   -4020.2749   -4177.2626    -1095.855   -1294.5444   -1027.6112   -965.40947    16.485722    16.485722    82.672993 
  346900    915.96565   -4020.2581   -4171.6889   -649.88368   -567.05038    271.90844   -1654.5091    16.485969    16.485969    82.736231 
  347000    942.47541   -4020.2757   -4176.0893   -941.19503   -1234.9781    -1028.662   -559.94503     16.48601     16.48601    82.625097 
  347100    923.30033   -4020.2761   -4172.9195    1093.8775    1554.8946    639.76711    1086.9707    16.485977    16.485977    82.491632 
  347200    927.81508   -4020.2702   -4173.6601    1324.1863    1422.4738    706.47733    1843.6077    16.486102    16.486102    82.432348 
  347300    946.99579   -4020.2976   -4176.8584   -239.42301   -350.31626   -289.49923   -78.453539    16.486383    16.486383    82.553456 
  347400    932.40109   -4020.2859   -4174.4339   -764.34774   -1281.6044   -16.952039   -994.48676    16.486589    16.486589    82.688911 
  347500    916.47506   -4020.2763   -4171.7914   -863.47579   -920.83439   -1318.7779   -350.81509     16.48662     16.48662     82.73103 
  347600    944.35006   -4020.2797   -4176.4032   -1617.7155    -1337.054   -2258.5156   -1257.5769    16.486367    16.486367    82.735792 
  347700    930.47258    -4020.286   -4174.1152   -815.62642    -333.0275   -687.50743   -1426.3443    16.485892    16.485892    82.686581 
  347800     924.6934   -4020.2841   -4173.1578    208.59607    123.33736   -496.12272    998.57358    16.485315    16.485315    82.582838 
  347900     951.8338    -4020.291   -4177.6517   -312.39084    502.25167    -1726.948    287.52379    16.484732    16.484732     82.59054 
  348000    934.69244   -4020.2863   -4174.8132   -422.55476    161.85523    422.59627   -1852.1158    16.484193    16.484193    82.666869 
  348100    935.44169    -4020.302   -4174.9527    110.03647    1535.7116   -972.98073   -232.62144      16.4838      16.4838    82.592114 
  348200    937.38113   -4020.2906   -4175.2619    569.64023    287.55082    1068.7248    352.64505    16.483504    16.483504    82.506532 
  348300    938.91148   -4020.2952   -4175.5196    548.68268    678.18466   -61.776411    1029.6398    16.483386    16.483386    82.520797 
  348400    938.14945    -4020.299   -4175.3974   -433.45572   -649.11275    -112.2687   -538.98572    16.483401    16.483401    82.632252 
  348500    949.35338    -4020.294   -4177.2446   -1213.6526    418.69743   -601.34053   -3458.3147    16.483427    16.483427    82.707455 
  348600     926.5217   -4020.2974   -4173.4735   -298.07656   -1899.3123     1261.188   -256.10544    16.483425    16.483425    82.629839 
  348700    931.23952   -4020.2996   -4174.2556    387.15003     664.3725    752.63901   -255.56143     16.48336     16.48336    82.554363 
  348800    921.45109   -4020.2958   -4172.6335    1296.8799    86.051244    2883.0736    921.51489     16.48339     16.48339    82.495447 
  348900    930.18499   -4020.3035   -4174.0851    448.91027    593.79629     -806.064    1558.9985    16.483672    16.483672    82.541473 
  349000    929.73615   -4020.3028   -4174.0102   -341.46849   -177.38087   -105.17694   -741.84767    16.483992    16.483992    82.642066 
  349100    926.21891    -4020.299    -4173.425   -252.31299    15.734602   -347.00236   -425.67122    16.484279    16.484279    82.667518 
  349200     947.1946    -4020.312   -4176.9057   -328.16791   -1033.0065     618.0678   -569.56503    16.484506    16.484506    82.613751 
  349300    950.64977   -4020.3058   -4177.4708    342.49665   -281.40522    831.69387    477.20129    16.484729    16.484729    82.524657 
  349400    961.50217   -4020.3092   -4179.2684   -230.01471    409.77072   -1391.0174    291.20256    16.485018    16.485018    82.523594 
  349500    921.58413   -4020.3063    -4172.666    209.81909    226.90832    325.61891    76.930043    16.485323    16.485323    82.579118 
  349600     916.3638   -4020.3054    -4171.802    226.18641    159.18584     773.4539   -254.08052    16.485622    16.485622    82.607224 
  349700    952.30317    -4020.313   -4177.7513   -344.63265    -239.0892   -1046.8279     252.0192    16.485966    16.485966    82.551054 
  349800    924.61542   -4020.3062   -4173.1671    644.37668    1654.8344     710.4228   -432.12718    16.486264    16.486264    82.529095 
  349900    920.53721   -4020.3069   -4172.4935     982.0173    1365.4851    610.08648    970.48032    16.486687    16.486687    82.510435 
  350000     927.9468   -4020.3186   -4173.7302    192.75281     489.3747   -621.26196    710.14568    16.487226    16.487226    82.581725 
Loop time of 957.88 on 1 procs for 200000 steps with 1280 atoms

Pair  time (%) = 851.343 (88.8779)
Neigh time (%) = 73.5283 (7.67615)
Comm  time (%) = 12.166 (1.2701)
Outpt time (%) = 0.439365 (0.0458685)
Other time (%) = 20.4031 (2.13003)

Nlocal:    1280 ave 1280 max 1280 min
Histogram: 1 0 0 0 0 0 0 0 0 0
Nghost:    3546 ave 3546 max 3546 min
Histogram: 1 0 0 0 0 0 0 0 0 0
Neighs:    47291 ave 47291 max 47291 min
Histogram: 1 0 0 0 0 0 0 0 0 0

Total # of neighbors = 47291
Ave neighs/atom = 36.9461
Neighbor list builds = 20000
Dangerous builds = 0
unfix		4
