LAMMPS (13 Jan 2014)
dimension       3
boundary        p p p
units           metal

atom_style	atomic
neighbor	0.3 bin
neigh_modify	every 10 delay 0 check no

# Number of steps for the equilibration steps
variable        eqsteps equal 50000

# Number of steps to run our NPH simulation
variable        simsteps equal 200000

# Our trial melting temperature
variable	T equal 1225.0
variable	T2 equal 2*${T}
variable	T2 equal 2*1225

# Some high temperature to melt the crystal
variable	Tmelt equal 2000.0

#System size
variable	nx equal 10
variable	ny equal 10
variable	nz equal 20
variable	nzhalf equal ${nz}*0.5
variable	nzhalf equal 20*0.5
variable	a equal 4.050
variable	length equal ${nz}*${a}
variable	length equal 20*${a}
variable	length equal 20*4.05

lattice		fcc ${a}
lattice		fcc 4.05
Lattice spacing in x,y,z = 4.05 4.05 4.05

region         box block 0 ${nx} 0 ${ny} 0 ${nz}
region         box block 0 10 0 ${ny} 0 ${nz}
region         box block 0 10 0 10 0 ${nz}
region         box block 0 10 0 10 0 20
create_box     1 box
Created orthogonal box = (0 0 0) to (40.5 40.5 81)
  1 by 1 by 1 MPI processor grid
create_atoms   1 box
Created 8000 atoms

mass		1 26.9815

pair_style	eam/alloy
pair_coeff	* * Al_potential.alloy Al

velocity	all create ${T2} 1337
velocity	all create 2450 1337

# Create a dump file. This can be visualized with
# e.g. OVITO (http://www.ovito.org/)
dump		id all atom 1000 atomsdump

# 1 fs timestep
timestep	0.001
thermo_style	custom step temp etotal pe press pxx pyy pzz lx ly lz

# output every 100th timestep
thermo		100

# Equilibration the whole system to the trial melting temperature
fix		1 all npt temp ${T} ${T} 1 iso 0 0 3 drag 1.0
fix		1 all npt temp 1225 ${T} 1 iso 0 0 3 drag 1.0
fix		1 all npt temp 1225 1225 1 iso 0 0 3 drag 1.0
run		${eqsteps}
run		50000
Memory usage per processor = 5.95314 Mbytes
Step Temp TotEng PotEng Press Pxx Pyy Pzz Lx Ly Lz 
       0         2450    -24644.07   -27177.252    16301.545    16116.473    16097.328    16690.834         40.5         40.5           81 
     100    1149.7483   -24671.323   -25860.107    41673.803    42047.146    41873.107    41101.156    40.591405    40.591405     81.18281 
     200    1151.4299   -24717.675   -25908.198    28636.895    29504.458    28560.894    27845.332    40.813122    40.813122    81.626244 
     300    1124.1439   -24743.289   -25905.599     18959.56    19294.992    18552.275    19031.414    41.000837    41.000837    82.001674 
     400    1114.5187   -24753.718   -25906.076    11839.907     12377.06    11428.105    11714.557    41.144703    41.144703    82.289405 
     500    1091.6522   -24755.959   -25884.675     6420.976    6361.6218    6001.1029    6900.2031    41.265282    41.265282    82.530564 
     600    1078.5061   -24753.423   -25868.546    2488.7852    2739.0097    2671.5953    2055.7505    41.359461    41.359461    82.718922 
     700    1080.5651   -24748.249   -25865.501   -651.86803   -1010.1419   -407.64577   -537.81639    41.425532    41.425532    82.851063 
     800    1081.3297   -24742.385   -25860.428   -2405.0042   -2281.4084   -2539.0676   -2394.5366    41.465164    41.465164    82.930328 
     900    1070.5175   -24736.857    -25843.72   -2768.4514   -2907.7194   -3065.0465   -2332.5884    41.482941    41.482941    82.965882 
    1000    1086.4512   -24731.614   -25854.953   -2904.8863   -3435.7164   -2544.6988   -2734.2436    41.484193    41.484193    82.968387 
    1100    1068.3731   -24726.635   -25831.282   -1789.0707   -1735.1991   -1924.4024   -1707.6106    41.473358    41.473358    82.946717 
    1200    1091.3568   -24721.619    -25850.03   -1412.2502   -1912.2605   -818.10252   -1506.3877    41.456221    41.456221    82.912442 
    1300    1091.7286   -24716.508   -25845.303   -301.32451    309.94277   -922.09694   -291.81935    41.437045    41.437045     82.87409 
    1400    1101.3592   -24711.223   -25849.976    420.48027    248.72254    26.203417    986.51485    41.420454    41.420454    82.840908 
    1500    1092.0069   -24705.884   -25834.966    1138.9043    1394.1382    1085.0977    937.47696    41.409216    41.409216    82.818432 
    1600    1095.2853   -24700.562   -25833.034    1496.2534     1850.146    874.97085    1763.6432    41.404758    41.404758    82.809515 
    1700    1104.5056   -24695.264   -25837.269    1361.3122    1203.5264    1177.5698    1702.8405    41.407465    41.407465    82.814931 
    1800    1102.1197   -24690.116   -25829.655    1141.3259    2266.2802     83.20876    1074.4887    41.415315    41.415315    82.830631 
    1900    1116.5767   -24685.072   -25839.558     478.9131    587.47359    482.61294    366.65276    41.426507    41.426507    82.853014 
    2000    1110.0271    -24680.07   -25827.785    183.26501    -501.5267     177.6423    873.67942    41.438861    41.438861    82.877721 
    2100    1104.8501   -24675.045   -25817.406   -67.816257    66.338327    -505.3477     235.5606    41.450334    41.450334    82.900667 
    2200    1100.2729       -24670    -25807.63   -219.18115   -186.94552   -502.10387    31.505918    41.459701    41.459701    82.919402 
    2300    1120.3601   -24664.862    -25823.26   -830.21114   -1024.7975   -1066.3413   -399.49461    41.466121    41.466121    82.932242 
    2400     1120.983   -24659.805   -25818.848   -801.33638   -1300.2708   -163.72944   -940.00891    41.468843    41.468843    82.937686 
    2500    1117.3122   -24654.834   -25810.081   -693.52949   -749.70202   -647.73334   -683.15312    41.468273    41.468273    82.936546 
    2600    1115.6849   -24649.883   -25803.448   -347.65709   -473.16013    20.820031   -590.63118    41.465618    41.465618    82.931236 
    2700    1130.8001    -24645.01   -25814.203   -249.16729   0.70418444   -459.07655   -289.12951    41.462008    41.462008    82.924016 
    2800    1118.0936    -24640.23   -25796.285    205.24748    841.20153   -226.11966   0.66057092    41.458531    41.458531    82.917063 
    2900    1130.0941   -24635.458   -25803.921    139.16403    407.44624   -355.42513    365.47099    41.456411    41.456411    82.912823 
    3000    1136.4474   -24630.817   -25805.849    265.47897    554.50018   -346.84691    588.78363    41.455662    41.455662    82.911323 
    3100    1124.7152   -24626.194   -25789.095    583.09281    142.82856    388.06353    1218.3864    41.457481    41.457481    82.914962 
    3200    1141.6674   -24621.617   -25802.046    374.49022    350.74424    441.75944    330.96699    41.461732    41.461732    82.923465 
    3300    1129.6477   -24617.082   -25785.083    324.52034    165.89888   -44.015523    851.67766    41.467745    41.467745     82.93549 
    3400    1139.1153   -24612.596   -25790.387   -59.786324    188.77637   -258.44375    -109.6916    41.474334    41.474334    82.948668 
    3500    1121.4049   -24608.154   -25767.633    265.25094     317.9642    157.95603    319.83259    41.480792    41.480792    82.961584 
    3600    1142.4622    -24603.71   -25784.961   -326.87049   -335.99568   -69.081804   -575.53398    41.486464    41.486464    82.972928 
    3700    1138.0948   -24599.365     -25776.1   -238.24383   -649.76325    121.78617   -186.75439    41.490326    41.490326    82.980652 
    3800    1138.4581   -24594.992   -25772.102   -274.91314   -518.98954    -312.5594    6.8095139    41.492572    41.492572    82.985143 
    3900    1122.5591   -24590.704   -25751.376    97.972045    536.28386   -70.939383   -171.42835    41.492875    41.492875    82.985751 
    4000    1140.1359   -24586.406   -25765.251   -48.359705   -370.16029     5.707338    219.37384    41.492493    41.492493    82.984987 
    4100    1137.8943   -24582.109   -25758.637    111.75719   -91.497124   -39.700038    466.46872    41.492156    41.492156    82.984313 
    4200    1139.9933   -24577.885   -25756.583    273.02554    1300.1033    226.92879   -707.95545    41.491937    41.491937    82.983875 
    4300     1155.701   -24573.743   -25768.682   -88.126073    22.595834   -161.08255    -125.8915    41.492179    41.492179    82.984358 
    4400    1137.7228   -24569.719    -25746.07    497.05235    286.82569    1151.7494    52.581939    41.492599    41.492599    82.985198 
    4500    1145.7952   -24565.764   -25750.462    256.92923    856.33671   -132.57593    47.026909     41.49403     41.49403     82.98806 
    4600    1154.3966   -24561.846   -25755.437     165.6034    749.03944     513.9291   -766.15835    41.496337    41.496337    82.992675 
    4700    1153.9743   -24557.963   -25751.117   -2.9959554     706.7241   -592.82539   -122.88657    41.499342    41.499342    82.998685 
    4800    1152.9281   -24554.081   -25746.154    50.592924     558.2422    94.866154   -501.32958    41.502776    41.502776    83.005552 
    4900    1162.6647   -24550.191    -25752.33   -189.73372   -500.42503   -34.419953   -34.356179    41.506365    41.506365    83.012731 
    5000    1159.8596   -24546.356   -25745.595   -150.44495   -456.28247    44.546741    -39.59912    41.509379    41.509379    83.018758 
    5100    1152.8559   -24542.595   -25734.593    45.260685   -279.12687    364.19561    50.713314    41.511763    41.511763    83.023527 
    5200    1153.4445   -24538.848   -25731.454   -24.223401   -16.547521   -385.66419     329.5415    41.513584    41.513584    83.027169 
    5300    1147.9247   -24535.153   -25722.052     143.9673   -682.40668     19.76118    1094.5474    41.514748    41.514748    83.029496 
    5400    1175.8177   -24531.483   -25747.222   -335.63659    206.67795   -467.33366   -746.25407      41.5153      41.5153      83.0306 
    5500     1155.536   -24527.935   -25722.703    244.67047   -99.526861    291.73011    541.80817    41.515338    41.515338    83.030675 
    5600      1161.27   -24524.389   -25725.087     299.8083    361.46054    652.28577    -114.3214    41.516049    41.516049    83.032097 
    5700    1164.3411   -24520.829   -25724.701    183.18497    320.40841   -64.807305     293.9538    41.517809    41.517809    83.035618 
    5800    1163.1371   -24517.337   -25719.965    178.63749    204.72457    905.03058   -573.84267    41.520031    41.520031    83.040061 
    5900    1155.0089   -24513.896   -25708.119    371.36389    681.58518    135.92547    296.58102    41.522972    41.522972    83.045943 
    6000    1180.6155   -24510.488   -25731.188    -385.1782   -371.09001    -98.88775   -685.55683     41.52604     41.52604     83.05208 
    6100    1169.4192   -24507.218   -25716.341   -16.656225   -453.78258   -128.29443    532.10833    41.528185    41.528185     83.05637 
    6200    1181.1737   -24503.914    -25725.19   -250.59879    227.68127     -540.459   -439.01863    41.530338    41.530338    83.060676 
    6300    1179.8124   -24500.673   -25720.542   -128.24793    89.497553   -95.436572   -378.80477    41.531936    41.531936    83.063871 
    6400    1174.8878    -24497.51   -25712.287   -88.371465   -247.52491   -328.26091    310.67142    41.532904    41.532904    83.065807 
    6500    1180.1689   -24494.474   -25714.712   -68.160205   -477.42595    201.93437    71.010956    41.532929    41.532929    83.065857 
    6600    1164.7789   -24491.476   -25695.802    401.65561    402.84191     348.7462    453.37873    41.533022    41.533022    83.066045 
    6700    1161.3704   -24488.468   -25689.269    565.97992     1271.839   -227.77214    653.87294    41.533444    41.533444    83.066889 
    6800    1181.5675   -24485.471   -25707.155   -25.951576    87.054862   -263.82236    98.912769    41.534409    41.534409    83.068818 
    6900    1179.9644   -24482.574     -25702.6    212.17611    837.62829    87.377099   -288.47705    41.535467    41.535467    83.070934 
    7000    1180.6745    -24479.67    -25700.43    169.27342    744.65363   -117.75208   -119.08129    41.537416    41.537416    83.074832 
    7100     1191.183   -24476.719   -25708.345    -194.6822   -649.89399    108.68333   -42.835946    41.540176    41.540176    83.080352 
    7200     1177.389   -24473.882   -25691.245    163.29914    17.706604    367.49433    104.69649    41.542631    41.542631    83.085262 
    7300    1199.6777   -24471.057   -25711.466   -442.06759   -407.17979   -428.20921   -490.81378    41.545189    41.545189    83.090377 
    7400    1179.8216   -24468.339   -25688.217    124.69364   -200.63107    395.03686    179.67513    41.547066    41.547066    83.094131 
    7500    1193.7455   -24465.689   -25699.964    -164.6077   -466.55904   -181.11267     153.8486    41.548695    41.548695    83.097391 
    7600    1194.0836   -24463.113   -25697.738   -380.17308    -195.5514   -818.13737   -126.83047    41.549858    41.549858    83.099717 
    7700    1181.0831   -24460.558   -25681.741    107.03818    31.347064   -175.66732    465.43479    41.550281    41.550281    83.100562 
    7800    1186.8608   -24457.973    -25685.13    34.383956    862.55531   -694.50151   -64.901925    41.550869    41.550869    83.101737 
    7900     1190.046   -24455.298   -25685.748   -41.035558    192.14447   -633.27455    318.02341    41.552301    41.552301    83.104603 
    8000    1192.2062   -24452.579   -25685.263    -75.02759   -257.69469    91.024224   -58.412301    41.554133    41.554133    83.108267 
    8100    1185.6511   -24449.986   -25675.892   -9.3564152    128.92148   -746.05073       589.06    41.555605    41.555605    83.111211 
    8200    1179.0907   -24447.462   -25666.585     223.2573   -379.21378    297.39613    751.58954    41.556979    41.556979    83.113957 
    8300    1183.1748   -24444.932   -25668.278    260.47617   -7.8967852   -138.34018    927.66547    41.558646    41.558646    83.117291 
    8400    1203.1061   -24442.437   -25686.391   -259.52486    -203.8752   -541.30725   -33.392139     41.56052     41.56052     83.12104 
    8500    1189.6215   -24439.933   -25669.945    10.528277   -514.04337   -375.96816    921.59636    41.562291    41.562291    83.124582 
    8600    1181.5032   -24437.535   -25659.152    392.16008    776.20513    600.49567   -200.22055     41.56344     41.56344     83.12688 
    8700     1197.235   -24435.162   -25673.046    8.9807919   -1170.4173    443.99021    753.36944    41.564497    41.564497    83.128993 
    8800    1198.2726   -24432.969   -25671.925   -181.40295   -223.10504   -467.12789    146.02408    41.564483    41.564483    83.128967 
    8900    1200.0011   -24430.723   -25671.466   -105.36824   -374.67627    649.05654     -590.485    41.564853    41.564853    83.129706 
    9000    1190.0792   -24428.526    -25659.01    57.310088   -300.90481   -405.39901    878.23409    41.565054    41.565054    83.130108 
    9100    1194.7507   -24426.316    -25661.63    22.501403   -349.90617    74.227037    343.18334     41.56513     41.56513     83.13026 
    9200    1211.0193   -24424.161   -25676.297   -87.667847    625.54869    206.23119   -1094.7834    41.565394    41.565394    83.130789 
    9300    1215.0914   -24422.136   -25678.482   -212.87535   -211.87169    227.54136   -654.29571    41.565708    41.565708    83.131416 
    9400    1188.9031   -24420.189   -25649.457    532.56254    354.20407    631.08554      612.398    41.566286    41.566286    83.132572 
    9500    1221.1094    -24418.17   -25680.738   -298.56892   -862.58694    62.666928   -95.786752    41.568398    41.568398    83.136796 
    9600    1188.1783   -24416.247   -25644.766    439.56904   -254.44064    298.60417    1274.5436    41.570761    41.570761    83.141522 
    9700    1206.7207   -24414.265   -25661.956   -248.73564   -157.86231    344.17944   -932.52407     41.57411     41.57411    83.148219 
    9800    1180.6825   -24412.284   -25633.053    437.35355    550.63387   -230.28019    991.70696    41.577512    41.577512    83.155025 
    9900    1213.9376   -24410.189   -25665.342   -695.08611   -1052.2604   -876.79984   -156.19809    41.581202    41.581202    83.162404 
   10000    1188.3458   -24408.221   -25636.914     336.6839    442.67803    696.92264   -129.54898    41.582952    41.582952    83.165905 
   10100    1214.7938   -24406.236   -25662.275   -538.45076   -1139.1904   -99.947407   -376.21449    41.584055    41.584055     83.16811 
   10200    1198.5781   -24404.343   -25643.615   -160.60037    -28.61771   -529.50391    76.320506    41.583398    41.583398    83.166796 
   10300    1206.8856   -24402.475   -25650.337   -73.922191   -260.55092   -499.03694    537.82128     41.58175     41.58175    83.163499 
   10400    1219.1983   -24400.727   -25661.319   -194.62259   -77.173557   -375.78815   -130.90607    41.579459    41.579459    83.158918 
   10500    1206.0232   -24399.023   -25645.993    315.61574    17.985093    70.743877    858.11826    41.577207    41.577207    83.154413 
   10600    1208.8753   -24397.351    -25647.27    240.25607    753.85793    -463.5728    430.48309    41.576031    41.576031    83.152062 
   10700    1201.6389   -24395.775   -25638.212    479.01934    924.35862   -371.79627    884.49568    41.575759    41.575759    83.151518 
   10800    1200.6009   -24394.227   -25635.591    522.61233    273.10061    465.41338      829.323    41.576786    41.576786    83.153573 
   10900    1216.6627   -24392.645   -25650.616    10.014429    364.76922   -70.015152   -264.71079    41.579467    41.579467    83.158935 
   11000    1222.5512   -24391.081    -25655.14   -294.14247   -1002.5475    75.412255    44.707805    41.583143    41.583143    83.166285 
   11100    1208.7712   -24389.566   -25639.377     240.1751   -114.53383    1124.7516    -289.6925    41.586993    41.586993    83.173986 
   11200    1206.0076   -24388.092   -25635.046   -35.053709   -196.10331    500.59831   -409.65613    41.590917    41.590917    83.181834 
   11300    1211.2889   -24386.625    -25639.04   -288.80312   -365.99093   -91.986656   -408.43177    41.593665    41.593665     83.18733 
   11400    1211.7162   -24385.235   -25638.091   -317.58386    -523.3585   -92.703828   -336.68926    41.594537    41.594537    83.189075 
   11500    1215.3487   -24383.833   -25640.445   -152.13616    272.71521   -135.23113   -593.89256    41.594048    41.594048    83.188097 
   11600    1216.9081   -24382.458   -25640.683   -239.06212   -119.25045   -33.483107   -564.45279    41.592674    41.592674    83.185347 
   11700     1210.475   -24381.074   -25632.647    92.583413    76.679968    263.50499   -62.434715    41.591037    41.591037    83.182074 
   11800      1210.75    -24379.67   -25631.527    82.854867    353.71351    412.28294   -517.43186     41.58984     41.58984     83.17968 
   11900    1213.2406    -24378.32   -25632.752    128.14236    121.58573    235.21229    27.629065    41.589007    41.589007    83.178013 
   12000    1221.9913    -24377.03    -25640.51    41.552012   -314.87554   -158.99076    598.52234    41.588801    41.588801    83.177602 
   12100    1215.2275   -24375.836   -25632.323    98.282082   -222.90902    429.06837    88.686898    41.589394    41.589394    83.178788 
   12200    1205.5789   -24374.708   -25621.219    551.05377    1189.5352   -179.52627    643.15238    41.590803    41.590803    83.181606 
   12300    1219.0309   -24373.609   -25634.028    68.990914   -607.51748    458.48095    356.00927    41.593065    41.593065    83.186131 
   12400    1213.2514   -24372.494   -25626.937    171.80458    177.41337   -123.93295    461.93333     41.59625     41.59625    83.192501 
   12500    1226.3355    -24371.32   -25639.292   -325.06258    45.557124    -548.8141   -471.93077    41.600083    41.600083    83.200167 
   12600    1203.8102   -24370.199   -25614.881   -116.88749   -85.233401   -108.74075   -156.68831    41.602739    41.602739    83.205479 
   12700    1220.2123   -24368.994   -25630.635   -421.79935   -79.739047   -93.997741   -1091.6613    41.604506    41.604506    83.209011 
   12800    1203.0654   -24367.737   -25611.649    13.357796    318.27424     12.29867   -290.49952    41.604983    41.604983    83.209966 
   12900    1215.2302   -24366.431   -25622.921   -157.74845   -1.3261167    -747.1323    275.21307    41.604423    41.604423    83.208846 
   13000    1215.2962   -24365.229   -25621.787   -141.17093    82.453316   -377.44052    -128.5256    41.602394    41.602394    83.204788 
   13100    1219.5134   -24363.993   -25624.911   -51.256377    -856.6572    -29.76392    732.65199    41.600192    41.600192    83.200383 
   13200    1218.4954   -24362.782   -25622.647    178.55838    -382.8946    321.74085    596.82889    41.598091    41.598091    83.196181 
   13300    1219.9233   -24361.664   -25623.006    202.03569   -723.21546     556.3504    772.97212    41.596385    41.596385     83.19277 
   13400    1219.1324   -24360.573   -25621.097    350.73894    587.70372     211.7224    252.79069    41.595757    41.595757    83.191515 
   13500     1215.051   -24359.567   -25615.871     354.0975    221.66733    770.90859    69.716596    41.596136    41.596136    83.192271 
   13600    1222.5035   -24358.683   -25622.693     120.3624    110.64968   -81.410697    331.84821    41.597128    41.597128    83.194255 
   13700    1220.5208   -24357.878   -25619.837    92.711901   -179.20161    458.41791   -1.0805958    41.598711    41.598711    83.197422 
   13800    1219.8773   -24357.104   -25618.399    57.421615    280.95857    582.49284   -691.18657    41.600875    41.600875    83.201751 
   13900    1228.8786   -24356.417   -25627.019   -197.27893    365.76041   -654.79295   -302.80425    41.603339    41.603339    83.206679 
   14000    1212.2593   -24355.801   -25609.219    234.59412    157.39471     719.3033   -172.91564    41.605369    41.605369    83.210737 
   14100     1207.082   -24355.249   -25603.314    227.08196    253.85044    376.77397    50.621465    41.607012    41.607012    83.214024 
   14200    1223.8114   -24354.627    -25619.99   -142.62339   -442.09051   -378.90051    393.12085    41.608566    41.608566    83.217131 
   14300    1232.4082   -24354.028   -25628.279   -428.46132   -261.89456   -585.44664   -438.04275    41.609357    41.609357    83.218714 
   14400    1224.8434   -24353.474   -25619.903   -239.43422   -514.52322   -142.04752   -61.731928    41.608968    41.608968    83.217936 
   14500    1225.8753   -24352.933   -25620.429   -195.51523   -98.593837   -247.61826   -240.33361    41.607854    41.607854    83.215708 
   14600    1211.7408   -24352.364   -25605.246    324.59302    621.02046     255.0714    97.687193    41.606618    41.606618    83.213237 
   14700    1230.1627   -24351.773   -25623.702   -3.1073302   -537.43443    439.16915    88.943288    41.605807    41.605807    83.211614 
   14800    1207.0249   -24351.245   -25599.251    405.46699    731.66875    604.35485   -119.62262    41.605295    41.605295    83.210589 
   14900    1213.1636   -24350.613   -25604.966    480.07562    -182.2491    670.91562    951.56033    41.605827    41.605827    83.211654 
   15000    1206.2611    -24349.97   -25597.186    456.86614    1086.7159   -58.730395    342.61295    41.606905    41.606905     83.21381 
   15100    1211.9694    -24349.23   -25602.348    78.163145    211.55524    87.142172   -64.207976    41.608988    41.608988    83.217976 
   15200    1216.5094    -24348.42   -25606.232    107.50438    172.84046    101.74807    47.924613    41.611246    41.611246    83.222492 
   15300    1223.5872   -24347.667   -25612.797   -219.14891   -57.529259    125.45869   -725.37615    41.612931    41.612931    83.225861 
   15400    1233.3282   -24347.043   -25622.245   -386.44328    47.397216   -85.278693   -1121.4483    41.613281    41.613281    83.226563 
   15500    1226.6424   -24346.535   -25614.824   -232.61035    468.72093   -979.16197   -187.39001    41.612604    41.612604    83.225209 
   15600     1244.328   -24346.134    -25632.71   -616.49025   -715.96938    162.44637   -1295.9477     41.61095     41.61095      83.2219 
   15700     1202.773   -24345.926   -25589.535    423.44759    627.45384    661.00798   -18.119058    41.607731    41.607731    83.215462 
   15800    1213.0929   -24345.698   -25599.978    382.60994    61.067303    656.91278    429.84974    41.605109    41.605109    83.210217 
   15900     1232.706   -24345.362   -25619.921   -2.7366406    124.44048     -209.395    76.744593    41.604278    41.604278    83.208556 
   16000    1229.8921   -24345.098   -25616.747     47.88851    163.48238   -470.85118    451.03433    41.604214    41.604214    83.208428 
   16100    1211.4219   -24344.953   -25597.505    667.93969    613.77944    879.88475    510.15487    41.604597    41.604597    83.209193 
   16200    1211.9116   -24344.882    -25597.94    293.95113     205.4348    590.26198    86.156615    41.605776    41.605776    83.211552 
   16300    1236.9105   -24344.712   -25623.618   -310.71824   -161.92133   -572.72217   -197.51121    41.607845    41.607845     83.21569 
   16400    1212.5364   -24344.613   -25598.318    231.45518    717.97953    124.16056   -147.77454    41.609674    41.609674    83.219348 
   16500    1229.6346   -24344.529   -25615.912    -228.5228   -167.44039    195.81197   -713.93999    41.611124    41.611124    83.222248 
   16600    1218.0473   -24344.426   -25603.828    62.218159   -694.84303    452.28896    429.20854    41.612154    41.612154    83.224309 
   16700    1236.0085   -24344.218   -25622.191   -379.26861    -541.6475   -153.91204   -442.24629    41.613567    41.613567    83.227133 
   16800    1223.8275   -24344.175   -25609.554   -117.75328   -807.46085   -311.38326    765.58427    41.613769    41.613769    83.227537 
   16900    1219.3437   -24344.283   -25605.026    -7.694961   -386.46882     775.6145   -412.23057    41.612642    41.612642    83.225284 
   17000    1231.2272   -24344.576   -25617.605   -219.15651   -370.30359   -153.05926   -134.10668    41.610061    41.610061    83.220123 
   17100    1225.1377   -24344.857   -25611.591    142.37679    415.78727    272.57586   -261.23276    41.607046    41.607046    83.214092 
   17200    1237.4848   -24344.967   -25624.467   -152.05355   -62.165665    -211.2888   -182.70619     41.60544     41.60544    83.210879 
   17300    1223.8079   -24345.041     -25610.4    332.27148   -135.33236    329.87585    802.27095     41.60492     41.60492    83.209839 
   17400    1218.3548   -24345.123   -25604.843    305.99089    705.79061   -324.63842    536.82047    41.605654    41.605654    83.211307 
   17500    1215.9267   -24345.177   -25602.387    296.78091    843.96077   -442.27245    488.65442    41.607183    41.607183    83.214367 
   17600    1241.4424    -24345.19   -25628.781   -426.89302   -302.01469   -385.73044   -592.93393    41.609091    41.609091    83.218183 
   17700    1230.0574   -24345.267   -25617.088   -176.68612    124.96798   -726.31109    71.284755    41.610423    41.610423    83.220846 
   17800    1229.6517   -24345.394   -25616.795   -121.92188    413.83586   -770.87581   -8.7256906    41.611401    41.611401    83.222802 
   17900    1233.9599   -24345.458   -25621.314   -297.79743   -385.32151   -166.24888    -341.8219    41.612223    41.612223    83.224446 
   18000    1230.5458   -24345.507   -25617.832   -191.97804   -594.48068    1.6843094    16.862251    41.612224    41.612224    83.224449 
   18100      1224.99   -24345.631   -25612.212   0.95104882   -70.432237   -28.334373    101.61976    41.611267    41.611267    83.222534 
   18200      1233.29   -24345.782   -25620.945   -279.19595   -195.65263   -362.26599   -279.66922    41.609963    41.609963    83.219925 
   18300    1231.7448   -24345.853   -25619.418   -99.115431   -263.54023   -226.44686    192.64079    41.608758    41.608758    83.217516 
   18400    1229.2454   -24345.868   -25616.849   -77.531413   -185.03931     318.9083   -366.46323    41.608004    41.608004    83.216008 
   18500    1230.0834   -24345.928   -25617.775    -176.0295   -266.70739     47.83729   -309.21839    41.607257    41.607257    83.214514 
   18600    1240.4186   -24345.969   -25628.502   -254.52336    314.59899   -494.15769   -584.01137    41.606802    41.606802    83.213604 
   18700    1228.8277   -24346.055   -25616.603   -49.678726    2.1304025    -117.1973   -33.969285    41.606373    41.606373    83.212746 
   18800    1217.4149   -24346.151   -25604.899    222.66572    247.91344   -29.405645    449.48937    41.606229    41.606229    83.212457 
   18900    1217.0084   -24346.101   -25604.429    323.66834   -244.01589    1061.1552    153.86569    41.607272    41.607272    83.214545 
   19000    1214.0999   -24345.987   -25601.308    209.12194   -823.75488    807.51643    643.60426    41.609064    41.609064    83.218128 
   19100    1226.5569   -24345.714   -25613.915   -136.09368    60.598131    194.12236   -663.00155    41.611632    41.611632    83.223265 
   19200     1230.616   -24345.434   -25617.832   -217.15276    67.220248   -714.11068   -4.5678425    41.613854    41.613854    83.227708 
   19300     1226.602    -24345.22   -25613.467   -404.91094   -107.05313    445.78883   -1553.4685    41.614892    41.614892    83.229784 
   19400    1249.7312    -24345.13   -25637.292   -712.63921   -1382.1254    150.70302   -906.49525    41.614023    41.614023    83.228047 
   19500    1222.5782   -24345.057   -25609.144   -46.543492   -566.35338    -65.22794    491.95084    41.612391    41.612391    83.224781 
   19600    1220.4736   -24344.886   -25606.797   -26.861489     407.6343    120.30284   -608.52161       41.611       41.611       83.222 
   19700    1218.8386   -24344.654   -25604.874    17.723729   -41.636696    229.12721   -134.31933    41.609812    41.609812    83.219624 
   19800    1230.2465   -24344.422   -25616.438    10.437558   -202.99798   -79.054383    313.36504    41.608819    41.608819    83.217637 
   19900    1237.9404   -24344.157   -25624.128   -91.709409   -28.644266    476.00169   -722.48565     41.60855     41.60855      83.2171 
   20000    1229.9666   -24344.036   -25615.762   -4.2979377   -450.52354    488.46844   -50.838716    41.608263    41.608263    83.216525 
   20100    1235.5313    -24344.06    -25621.54    144.56576   -72.820296    639.89854   -133.38096    41.607806    41.607806    83.215613 
   20200    1215.7973   -24344.158   -25601.234    302.85986    627.17633    690.27947   -408.87621    41.608151    41.608151    83.216301 
   20300     1226.011   -24344.203   -25611.839    81.585698     214.6598   -56.704145    86.801442    41.609314    41.609314    83.218629 
   20400    1231.6795    -24344.28   -25617.777   -193.88303   -935.88484    213.79707    140.43869    41.610443    41.610443    83.220886 
   20500    1221.9137   -24344.438   -25607.838   -33.248029    243.70877   -175.58322   -167.86964    41.610807    41.610807    83.221614 
   20600    1224.5718    -24344.63   -25610.779   -79.230089   -121.99538    26.975967   -142.67085     41.61042     41.61042     83.22084 
   20700    1226.2171   -24344.789   -25612.638   -62.489743   -592.71304    175.09713    230.14668    41.609532    41.609532    83.219064 
   20800    1217.0916   -24344.911   -25603.325    387.81632    1230.0474     220.5252    -287.1237    41.608627    41.608627    83.217253 
   20900    1214.9238   -24344.973   -25601.146    241.77509    313.00235    484.57275   -72.249817     41.60825     41.60825      83.2165 
   21000    1224.9739   -24345.052   -25611.616    55.432058   -95.737237   -188.73554    450.76895    41.607948    41.607948    83.215895 
   21100    1237.3254   -24345.077   -25624.412    -310.1976    419.89427   -960.09683   -390.39025    41.608201    41.608201    83.216403 
   21200    1211.9487   -24345.187   -25598.283    375.32791   -60.678199    257.26906    929.39286    41.607847    41.607847    83.215694 
   21300    1241.9836   -24345.274   -25629.426   -379.21184   -455.40083    63.301725   -745.53641    41.607841    41.607841    83.215683 
   21400    1219.3687   -24345.454   -25606.223    94.006577   -303.90474     172.3478    413.57667    41.607409    41.607409    83.214819 
   21500     1220.285   -24345.685   -25607.401    275.83945    696.69567    -415.2452    546.06786    41.606798    41.606798    83.213597 
   21600    1225.8257   -24345.789   -25613.234    50.726147    -541.0932    616.83823    76.433414    41.606929    41.606929    83.213859 
   21700    1218.8696   -24345.805   -25606.058    336.98639    713.94303   -32.142776    329.15893    41.607872    41.607872    83.215745 
   21800    1225.4615   -24345.729   -25612.797    -61.33125    147.80119     406.9391   -738.73403    41.610062    41.610062    83.220123 
   21900    1223.3769   -24345.609   -25610.522   -157.43063   -841.81764    152.58274      216.943    41.612107    41.612107    83.224215 
   22000     1234.354   -24345.431   -25621.694   -466.15746   -189.65976   -1007.9609   -200.85174    41.613712    41.613712    83.227423 
   22100    1226.6659   -24345.241   -25613.555   -142.92424   -667.33407   -505.20003    743.76136     41.61469     41.61469    83.229379 
   22200     1213.534   -24345.037   -25599.773   -15.064361   -277.05058    165.01726    66.840234    41.615146    41.615146    83.230291 
   22300    1228.8609   -24344.807    -25615.39   -327.83137    -487.8268   -280.05563   -215.61169    41.614984    41.614984    83.229969 
   22400    1251.0689   -24344.571   -25638.116    -856.6131   -557.82221   -1281.1938    -730.8233     41.61441     41.61441     83.22882 
   22500    1236.5672   -24344.422   -25622.973   -302.23177    254.31004   -657.41851   -503.58684    41.612674    41.612674    83.225347 
   22600      1227.86   -24344.274   -25613.822   -214.68535   -358.46702    -152.7146   -132.87442    41.610589    41.610589    83.221177 
   22700    1222.5155   -24344.169   -25608.191    73.612064    571.19427   -87.552127   -262.80596    41.608146    41.608146    83.216292 
   22800    1228.5193   -24343.998   -25614.228    97.611936    287.78003    136.00448    -130.9487    41.606646    41.606646    83.213292 
   22900    1220.3495   -24343.855   -25605.637    550.03248    477.53792    660.47843    512.08108    41.605962    41.605962    83.211923 
   23000    1236.9286   -24343.616   -25622.541   -198.67293    91.345173   -365.59441   -321.76957    41.607321    41.607321    83.214642 
   23100    1207.1007   -24343.414   -25591.499    423.40716    427.02765    449.02122    394.17261    41.609156    41.609156    83.218313 
   23200    1227.3544   -24343.243   -25612.269   -221.72248   -89.458793   -300.44006   -275.26858    41.611191    41.611191    83.222382 
   23300    1233.6143   -24343.038   -25618.535   -321.28272   -360.52604   -397.81507   -205.50705    41.613022    41.613022    83.226045 
   23400    1218.1309   -24342.812     -25602.3   -83.817539   -328.30145    308.74217   -231.89334    41.614361    41.614361    83.228722 
   23500    1224.3039    -24342.54   -25608.412   -100.95577   -904.79063   -376.21482    978.13814    41.615134    41.615134    83.230267 
   23600    1230.9676   -24342.198   -25614.959   -282.21724   -223.01637    51.388416   -675.02378    41.615687    41.615687    83.231374 
   23700    1223.1926   -24341.918   -25606.641   -36.405191   -137.04162    144.45446   -116.62842    41.615443    41.615443    83.230886 
   23800    1227.1989   -24341.688   -25610.553    -164.4243    -50.85381   -235.93019   -206.48892    41.614623    41.614623    83.229246 
   23900    1218.2898    -24341.52   -25601.173    142.69009   -66.635359    450.64436    44.061278    41.613115    41.613115    83.226231 
   24000     1216.142   -24341.223   -25598.655    340.69722    737.64855    579.90701    -295.4639    41.612247    41.612247    83.224494 
   24100    1230.2451   -24340.892   -25612.906   -19.067772    248.74835   -534.32173    228.37006    41.612366    41.612366    83.224732 
   24200    1222.0331   -24340.618   -25604.142    55.943896    592.44578    304.01756   -728.63166    41.612738    41.612738    83.225477 
   24300    1225.5844   -24340.311   -25607.507    31.660364    539.29147    4.8807478   -449.19112    41.613393    41.613393    83.226785 
   24400    1219.4426   -24339.975    -25600.82    73.886931    171.05773   -388.57649    439.17954    41.614459    41.614459    83.228918 
   24500    1226.3054   -24339.683   -25607.624   -128.48156   -631.64673    188.80896    57.393085    41.615272    41.615272    83.230544 
   24600     1225.014    -24339.39   -25605.996   -96.580489    43.889522   -48.633083   -284.99791    41.615511    41.615511    83.231021 
   24700    1211.7336   -24339.082   -25591.956    61.701881    808.37251   -1441.4678    818.20091    41.615125    41.615125     83.23025 
   24800    1220.1568   -24338.702   -25600.286    72.373414    180.04726    159.61663   -122.54364    41.614725    41.614725    83.229449 
   24900    1238.6875   -24338.301   -25619.045   -481.05236   -521.61616   -899.26226   -22.278637    41.614385    41.614385    83.228769 
   25000    1243.0832   -24337.937   -25623.225   -387.87583    -811.7524    279.60796   -631.48304     41.61389     41.61389     83.22778 
   25100    1227.3367    -24337.72   -25606.727    32.300938    218.92327   -319.70173    197.68128    41.613097    41.613097    83.226193 
   25200    1228.2098   -24337.572   -25607.482    4.8832716   -9.7379591   -621.68857    646.07634    41.612386    41.612386    83.224773 
   25300     1221.035   -24337.537   -25600.029    207.38974   -346.42155     758.5896    210.00117    41.611475    41.611475     83.22295 
   25400     1228.085   -24337.521   -25607.302    113.10672    256.29868   -434.75894    517.78041    41.611449    41.611449    83.222898 
   25500    1223.1452   -24337.603   -25602.276    178.31698   -21.753184    605.76846   -49.064325    41.611603    41.611603    83.223206 
   25600    1229.5393   -24337.864   -25609.149   -69.325159   -304.91938    316.73847   -219.79456    41.611472    41.611472    83.222944 
   25700    1234.4911   -24338.122   -25614.527    -175.0115   -774.14178    651.38504   -402.27776    41.611762    41.611762    83.223523 
   25800    1228.9014   -24338.421   -25609.046   -171.23124   -1169.2906   -235.98611    891.58297    41.612258    41.612258    83.224516 
   25900    1221.8196    -24338.73   -25602.032    143.05412    474.92653   -166.37356    120.60941    41.612429    41.612429    83.224859 
   26000    1219.7583   -24339.011   -25600.183    224.47209    140.60656    354.71444    178.09526    41.612718    41.612718    83.225436 
   26100     1222.872   -24339.202   -25603.593   -44.130167    324.96267   -222.35118   -235.00199    41.613543    41.613543    83.227086 
   26200    1234.4062   -24339.221   -25615.538   -263.00585    54.336076   -619.49639   -223.85724     41.61496     41.61496    83.229919 
   26300    1223.5072   -24339.316   -25604.364   -54.035335    53.456617   -39.214243   -176.34838    41.615655    41.615655     83.23131 
   26400    1227.6232   -24339.359   -25608.663   -422.16661    572.10226   -1173.3137   -665.28836    41.616071    41.616071    83.232143 
   26500    1235.5878   -24339.508   -25617.047   -361.01119    67.804372   -162.28074    -988.5572     41.61476     41.61476     83.22952 
   26600     1228.423   -24339.621   -25609.751    -71.22096    -12.40785   -925.23597    723.98094    41.613211    41.613211    83.226423 
   26700    1211.0722   -24339.594   -25591.785     283.0823    173.73091     283.6384    391.87759    41.612591    41.612591    83.225182 
   26800    1222.1321   -24339.538   -25603.164    152.47654   -588.28902    51.809728    993.90891    41.612509    41.612509    83.225019 
   26900     1218.717   -24339.483   -25599.578    105.48349    431.16933   0.82570593   -115.54455    41.612623    41.612623    83.225246 
   27000    1233.7001   -24339.381   -25614.968   -224.73956   -103.08078   -314.43254   -256.70536    41.612807    41.612807    83.225614 
   27100    1231.2335   -24339.384    -25612.42   -66.746118   -331.73934   -68.092408    199.59339    41.612579    41.612579    83.225159 
   27200     1216.758   -24339.326   -25597.395    232.63414    100.99212    613.66722   -16.756908    41.612835    41.612835     83.22567 
   27300    1207.5312   -24339.189   -25587.719    449.78211    192.46738    155.07924    1001.7997    41.613892    41.613892    83.227784 
   27400    1222.5974   -24338.927   -25603.034   -30.492973     747.9919   -615.88087   -223.58995    41.615675    41.615675    83.231349 
   27500    1220.1146   -24338.693   -25600.233    5.8668103   -100.89209    429.60492    -311.1124    41.617143    41.617143    83.234286 
   27600    1223.5739   -24338.423    -25603.54   -120.09515    361.91977   -13.014951   -709.19026     41.61828     41.61828     83.23656 
   27700    1230.8517   -24338.228    -25610.87   -381.47188   -251.00979    -316.1143   -577.29156    41.618165    41.618165    83.236331 
   27800     1225.453   -24337.904   -25604.964    -238.9628   -47.938106    102.19236   -771.14267    41.618061    41.618061    83.236122 
   27900     1226.665   -24337.511   -25605.824   -152.89954    465.68126   -515.08208   -409.29779    41.617922    41.617922    83.235844 
   28000    1226.8599   -24337.137   -25605.651   -157.25075   -775.46142    965.06177    -661.3526    41.617745    41.617745    83.235489 
   28100    1213.7673   -24336.856   -25591.833    139.00496   -524.95805   -196.06981    1138.0427    41.617229    41.617229    83.234458 
   28200     1227.218   -24336.534   -25605.419   -53.192638    492.33503   -437.91421   -213.99874    41.616837    41.616837    83.233674 
   28300    1232.9247   -24336.215       -25611   -198.22651   -685.76012   -40.488675    131.56926    41.616527    41.616527    83.233054 
   28400    1222.2252   -24335.901   -25599.624   -82.371076     88.17399   -123.91488   -211.37233    41.616183    41.616183    83.232365 
   28500    1240.5052   -24335.633   -25618.256   -514.01216   -894.55706   -1382.4754      734.996    41.615564    41.615564    83.231128 
   28600     1221.734   -24335.506    -25598.72    197.48377   -473.67462    652.65936    413.46658    41.614309    41.614309    83.228619 
   28700    1216.1989   -24335.457   -25592.948    304.32115    942.42784   -211.08355    181.61915    41.613593    41.613593    83.227186 
   28800    1216.6717   -24335.403   -25593.383     333.5549     140.5443    278.30275    581.81764    41.613499    41.613499    83.226999 
   28900    1233.9676   -24335.355   -25611.218   -152.68819    1056.8073   -185.19401   -1329.6778    41.613905    41.613905    83.227809 
   29000     1227.821   -24335.343   -25604.851   -16.190272   -156.51922   -388.56768    496.51608    41.614946    41.614946    83.229893 
   29100    1229.3634   -24335.364   -25606.467   -42.415188    259.66631   -465.15725    78.245384    41.615893    41.615893    83.231787 
   29200    1223.6165   -24335.358   -25600.519    49.792418    -86.62901   -539.03283     775.0391     41.61674     41.61674     83.23348 
   29300    1225.5272   -24335.362   -25602.498   -222.65376   -189.50867    -946.4605    468.00788    41.617329    41.617329    83.234657 
   29400    1214.8877   -24335.325    -25591.46    130.23855    346.35512   -188.02503    232.38556    41.617546    41.617546    83.235093 
   29500    1226.1377   -24335.165   -25602.932   -160.66707   -323.31457   -575.96949    417.28285    41.618127    41.618127    83.236254 
   29600    1222.4136   -24335.026   -25598.943   -89.279963    931.04176   -826.46764   -372.41401     41.61804     41.61804    83.236081 
   29700    1208.9453   -24334.848   -25584.839    470.94044    903.09036    221.66829    288.06267     41.61772     41.61772    83.235439 
   29800    1240.1428   -24334.576   -25616.824   -545.66176   -103.86713   -431.72723   -1101.3909    41.618227    41.618227    83.236454 
   29900    1223.9342   -24334.422   -25599.912    105.66769    661.08286    -420.3176     76.23781    41.617557    41.617557    83.235113 
   30000     1233.061   -24334.279   -25609.204    -196.9919   -249.52463    226.85615   -568.30722    41.616938    41.616938    83.233875 
   30100    1228.1642   -24334.205   -25604.068   -141.12547    118.92253   -284.63865   -257.66029    41.616036    41.616036    83.232072 
   30200    1217.3398   -24334.123   -25592.794     255.3626    672.52494    435.89411   -342.33124    41.614929    41.614929    83.229858 
   30300     1239.213   -24334.087   -25615.373   -257.43389   -215.62682   -135.57086     -421.104    41.613787    41.613787    83.227574 
   30400    1237.1646   -24334.201    -25613.37   -142.76953    -663.1999    514.64343   -279.75214    41.612448    41.612448    83.224896 
   30500     1214.579   -24334.369   -25590.185    655.80671    839.17247    555.33183    572.91581    41.611648    41.611648    83.223296 
   30600    1231.0471   -24334.509   -25607.353   -88.371908   -591.56703    733.68206   -407.23075    41.612396    41.612396    83.224792 
   30700    1230.2661   -24334.686   -25606.722    80.691368   -202.99453    351.11342    93.955212    41.613308    41.613308    83.226615 
   30800    1220.7341   -24334.979   -25597.159   -70.867785   -8.1689803   -165.99447   -38.439907    41.614138    41.614138    83.228275 
   30900    1221.5173   -24335.173   -25598.163    143.88129    67.210788   -379.66587    744.09894    41.615231    41.615231    83.230462 
   31000     1225.111   -24335.365   -25602.071   -3.1453598   -61.356788     92.27824   -40.357531    41.616437    41.616437    83.232874 
   31100    1223.5324     -24335.5   -25600.574   -185.90566    404.55649   -1123.6762    161.40271    41.617491    41.617491    83.234983 
   31200    1228.2528   -24335.538   -25605.493   -289.12938    286.94531   -238.85934   -915.47411    41.618183    41.618183    83.236366 
   31300    1229.5276   -24335.608   -25606.881   -262.96895    644.03139   -459.52067   -973.41757     41.61768     41.61768     83.23536 
   31400    1229.0486   -24335.683    -25606.46   -218.48872    83.147364   -251.05449   -487.55904    41.616336    41.616336    83.232671 
   31500    1227.2581   -24335.799   -25604.724    17.720461    272.33683   -273.91814    54.742696    41.614189    41.614189    83.228378 
   31600    1233.5289    -24335.94    -25611.35    -228.4778   -562.06347     72.46343   -195.83336    41.612056    41.612056    83.224112 
   31700    1222.0094     -24336.1   -25599.599     419.5427    102.80941    717.20261    438.61607    41.610324    41.610324    83.220648 
   31800    1211.3196   -24336.334    -25588.78     515.0268    887.98433    455.51806    201.57802    41.609753    41.609753    83.219507 
   31900    1231.9445   -24336.564   -25610.335   -49.287981   -582.36746    404.75178    29.751737    41.610138    41.610138    83.220277 
   32000    1235.7289   -24336.836   -25614.521   -156.54714   -173.76738     -277.901   -17.973042    41.610989    41.610989    83.221977 
   32100    1230.1942   -24337.214   -25609.175    111.29908      136.637   -14.621967     211.8822     41.61186     41.61186    83.223719 
   32200    1227.6246   -24337.623   -25606.928   -102.41258   -189.25728   -697.76097    579.78051    41.612937    41.612937    83.225874 
   32300    1209.6216   -24337.946   -25588.637    355.01736    508.89725    286.23278    269.92206    41.614107    41.614107    83.228214 
   32400    1216.0395   -24338.091   -25595.417    118.02548    633.80608   -437.15616    157.42651    41.615878    41.615878    83.231756 
   32500    1216.4713   -24338.145   -25595.918    22.632066    110.81725   -299.98468    257.06363    41.617599    41.617599    83.235198 
   32600    1236.7272   -24338.197   -25616.914   -639.38958   -526.85561   -531.48609   -859.82705    41.618506    41.618506    83.237013 
   32700    1225.1177   -24338.232   -25604.945   -237.95858    807.75291   -752.43683   -769.19181    41.618116    41.618116    83.236232 
   32800    1222.0469   -24338.311   -25601.849   -44.515894    789.18405   -552.06726   -370.66448    41.616391    41.616391    83.232783 
   32900    1226.4021   -24338.414   -25606.455   -47.055401    687.11274   -469.64864   -358.63031    41.613906    41.613906    83.227812 
   33000    1220.8809   -24338.552   -25600.884    173.60423   -324.70183    538.16101     307.3535     41.61118     41.61118     83.22236 
   33100    1214.7349   -24338.691   -25594.669    406.34081    663.74246    414.69949    140.58048    41.608935    41.608935    83.217871 
   33200    1218.0365   -24338.776   -25598.167    503.72978    446.39251    760.54785    304.24897    41.607708    41.607708    83.215416 
   33300    1242.9531   -24338.879   -25624.033   -171.97592   -167.72966    53.479451   -401.67754    41.607395    41.607395     83.21479 
   33400    1232.5555   -24339.163   -25613.566    61.309076    672.34851   -605.77222    117.35094    41.606973    41.606973    83.213947 
   33500    1237.8059   -24339.515   -25619.347   -103.30303    0.8855382   -272.93276   -37.861878    41.607181    41.607181    83.214361 
   33600    1241.5394   -24339.854   -25623.546   -266.32292   -277.12729    -194.0022   -327.83925    41.608382    41.608382    83.216765 
   33700    1198.5319   -24340.149   -25579.373    762.41211    722.50613    202.40766    1362.3225    41.610499    41.610499    83.220998 
   33800    1221.7534   -24340.343   -25603.577    190.76097    1008.3365    -14.70452   -421.34903    41.613528    41.613528    83.227056 
   33900    1223.2454   -24340.544   -25605.321    137.39958   -104.92358    273.50926    243.61305    41.616243    41.616243    83.232486 
   34000    1237.2725   -24340.837   -25620.117   -515.54998   -348.58207    -631.4233   -566.64456    41.617983    41.617983    83.235966 
   34100    1216.2991   -24341.189   -25598.784     49.41242   -243.31729    503.32346   -111.76891    41.618174    41.618174    83.236348 
   34200    1225.1035   -24341.503   -25608.201   -350.62693   -849.81559     -301.142    99.076811    41.617485    41.617485    83.234969 
   34300    1231.6776   -24341.707   -25615.203     -544.341   -276.06762   -1017.6667   -339.28874    41.615911    41.615911    83.231822 
   34400    1234.6856   -24341.929   -25618.534   -488.25394   -409.87423   -670.34544   -384.54216    41.613028    41.613028    83.226057 
   34500    1233.1773   -24342.222   -25617.268   -62.579449    552.79419     329.9917   -1070.5242    41.609149    41.609149    83.218297 
   34600    1236.1433    -24342.54   -25620.653    62.216846    140.32039    1193.0702     -1146.74    41.605331    41.605331    83.210663 
   34700    1215.3295   -24342.925   -25599.517    723.15852    395.93881    1410.8853    362.65149    41.602386    41.602386    83.204772 
   34800    1227.5521   -24343.247   -25612.477    278.89046    275.38657   -4.0557691    565.34059    41.601839    41.601839    83.203677 
   34900    1214.9306    -24343.61    -25599.79    641.35593    642.34103    1008.8263    272.90051    41.603151    41.603151    83.206303 
   35000    1238.6003   -24343.868   -25624.521   -119.48826   -796.30719   -224.98813    662.83055    41.606903    41.606903    83.213805 
   35100    1233.5589   -24344.208   -25619.649   -163.69365     51.59694   -503.00322   -39.674669    41.610737    41.610737    83.221475 
   35200    1221.8276   -24344.548   -25607.859   -79.011693   -123.01427   -56.858094    -57.16271    41.614046    41.614046    83.228091 
   35300    1201.3584   -24344.846   -25586.993    535.47082    537.68388    599.16825    469.56033    41.616442    41.616442    83.232885 
   35400    1217.7118   -24344.926   -25603.981   -258.18347    380.79565   -216.21119   -939.13486    41.618798    41.618798    83.237596 
   35500    1217.6806   -24344.909   -25603.932   -475.75506     231.5005   -1180.4068   -478.35884     41.61952     41.61952     83.23904 
   35600     1212.157   -24344.709   -25598.021    25.927944    136.38996    132.89528   -191.50142    41.618771    41.618771    83.237543 
   35700    1229.2787   -24344.453   -25615.468   -393.55136   -562.09544    269.92667    -888.4853    41.617093    41.617093    83.234186 
   35800    1213.4095   -24344.182   -25598.789    234.76838    67.221828    786.03437   -148.95105    41.614147    41.614147    83.228293 
   35900    1232.6936   -24343.898   -25618.444   -133.30365    80.753776   -63.650798   -417.01392    41.611272    41.611272    83.222545 
   36000    1230.4251   -24343.711   -25615.912   -140.38158     713.6261   -1095.9544   -38.816468    41.608327    41.608327    83.216653 
   36100    1206.2616   -24343.516   -25590.733    661.56242   -41.357779    1216.7601    809.28499    41.606106    41.606106    83.212212 
   36200    1229.6128    -24343.29    -25614.65    79.593171   -520.49201    64.724837    694.54669    41.605652    41.605652    83.211304 
   36300    1214.5836   -24343.155   -25598.976    325.83417    309.98371    872.97134   -205.45253    41.605739    41.605739    83.211477 
   36400    1221.4526   -24342.922   -25605.845    199.18147    292.78157    509.12451   -204.36168    41.607196    41.607196    83.214391 
   36500    1236.5027   -24342.606    -25621.09    -368.0703   -365.58728   -580.14647   -158.47714    41.609698    41.609698    83.219396 
   36600    1225.2371    -24342.26   -25609.097    5.9996022    416.31367   -535.83323    137.51837    41.612309    41.612309    83.224618 
   36700    1212.4595   -24341.951   -25595.576    212.29908    898.05735   -354.88567     93.72556    41.614747    41.614747    83.229493 
   36800    1230.9558   -24341.667   -25614.416   -444.61371   -426.85642   -313.27468   -593.71002    41.616534    41.616534    83.233069 
   36900    1204.3745   -24341.435     -25586.7    430.39277     135.3183   -115.63928    1271.4993     41.61698     41.61698     83.23396 
   37000    1211.7456   -24341.173    -25594.06    52.960431    481.62326     32.79509   -355.53705    41.617303    41.617303    83.234606 
   37100    1224.5489   -24340.781   -25606.905   -213.44203    -346.9583    57.934702   -351.30248    41.617479    41.617479    83.234958 
   37200     1231.073   -24340.469   -25613.339   -299.19542   -568.04404   -808.87912    479.33691    41.616729    41.616729    83.233458 
   37300    1221.4836   -24340.227   -25603.183    169.88062      248.809     609.0664   -348.23353    41.615007    41.615007    83.230014 
   37400    1213.8302   -24339.922   -25594.964    213.82336   -264.58746    382.25098    523.80657    41.614018    41.614018    83.228036 
   37500    1211.7989   -24339.528    -25592.47    246.64865    528.22994   -198.79798    410.51399    41.613757    41.613757    83.227514 
   37600    1241.8691   -24339.079   -25623.112   -359.16256   -371.24432   -521.58411   -184.65925    41.614129    41.614129    83.228258 
   37700    1223.0717   -24338.617   -25603.214    70.004833    46.313889    858.06239   -694.36178    41.615051    41.615051    83.230102 
   37800    1218.3191   -24338.145   -25597.828    113.56185   -425.74896    600.08924    166.34528    41.616416    41.616416    83.232831 
   37900     1219.522   -24337.732   -25598.659    108.56423    980.00586    -513.0948   -141.21836    41.617253    41.617253    83.234506 
   38000    1212.4781   -24337.373   -25591.017    226.04584   -275.06176    604.62501    348.57425    41.617854    41.617854    83.235707 
   38100    1228.2961   -24336.991    -25606.99   -375.67845   -359.57075   -390.13493   -377.32966    41.618494    41.618494    83.236988 
   38200    1210.1107   -24336.609   -25587.805    328.79872    251.35104    155.18052     579.8646    41.618496    41.618496    83.236991 
   38300    1225.6927   -24336.191   -25603.498   -66.013917   -229.82884    5.0972895    26.689803    41.618903    41.618903    83.237806 
   38400    1221.2334    -24335.81   -25598.507    97.581009    529.33691   -277.96831     41.37443    41.619234    41.619234    83.238468 
   38500    1231.5514   -24335.545    -25608.91   -280.28677   -400.21808   -198.91499   -241.72723     41.61909     41.61909    83.238181 
   38600    1217.9435   -24335.376   -25594.671    220.81737    993.84992    245.46974   -576.86754    41.618141    41.618141    83.236283 
   38700    1227.5184    -24335.22   -25604.415   -132.53801   -358.12723   -372.24371     332.7569    41.617112    41.617112    83.234223 
   38800    1232.1855   -24335.133   -25609.154   -151.70266   -419.45735   -220.17102    184.52039    41.615654    41.615654    83.231309 
   38900    1220.6809   -24335.096   -25597.221    333.89737   -478.38262    461.75121    1018.3235    41.614356    41.614356    83.228712 
   39000     1226.085   -24335.061   -25602.774    157.73101    152.88396   -119.22802    439.53709    41.613886    41.613886    83.227771 
   39100    1223.7289   -24335.073    -25600.35    215.28205    59.030382     265.5419    321.27386     41.61379     41.61379    83.227579 
   39200    1226.1502   -24335.024   -25602.804    38.375266    942.13871   -250.04314   -576.96978    41.614495    41.614495    83.228991 
   39300     1221.693   -24334.939   -25598.111    74.322508    684.03999   -132.94232   -328.13015    41.615734    41.615734    83.231468 
   39400    1220.1011   -24334.903   -25596.429    116.32404    288.73173     18.49097    41.749417    41.616738    41.616738    83.233476 
   39500    1221.7726   -24334.822   -25598.076   -101.44353   -714.88911    5.2652194    405.29329    41.618015    41.618015    83.236029 
   39600    1214.5213   -24334.684    -25590.44    177.60799    539.12838    198.79122   -205.09561    41.619007    41.619007    83.238013 
   39700    1215.8316   -24334.587   -25591.698    68.972084    523.06002    236.77023     -552.914    41.619257    41.619257    83.238515 
   39800    1234.0802   -24334.449   -25610.428   -198.04433    519.53634   -781.68031   -331.98902    41.618985    41.618985     83.23797 
   39900    1217.0519   -24334.444   -25592.817    15.678379    449.35954    -246.8119   -155.51251    41.617527    41.617527    83.235054 
   40000     1233.617   -24334.418   -25609.918   -367.02573    240.41474   -1131.3327   -210.15928     41.61621     41.61621     83.23242 
   40100    1232.5495   -24334.515   -25608.912   -159.39733   -550.33992     588.7369   -516.58898    41.614161    41.614161    83.228322 
   40200    1235.6623   -24334.663   -25612.278    20.046579    72.695322    27.332703   -39.888289    41.612117    41.612117    83.224235 
   40300    1225.7511   -24334.815   -25602.183     259.1949    472.95086   -406.03265    710.66648    41.611215    41.611215    83.222429 
   40400    1219.5101   -24334.838   -25595.753    312.21176    224.77392    537.57013    174.29125    41.612318    41.612318    83.224635 
   40500    1217.9634   -24334.897   -25594.213    338.84215    447.40701    197.97469    371.14475    41.613987    41.613987    83.227975 
   40600    1229.8531   -24334.855   -25606.464   -154.65243   -248.80565    206.20385   -421.35549    41.616749    41.616749    83.233498 
   40700    1218.2436   -24334.787   -25594.393    11.573406     61.98336   -291.66431    264.40117      41.6192      41.6192      83.2384 
   40800    1239.9479   -24334.742   -25616.789   -531.43363   -551.07208   -325.40739   -717.82143    41.620655    41.620655    83.241311 
   40900    1225.4307   -24334.799   -25601.835   -216.59509    231.38015     133.9097   -1015.0751    41.620511    41.620511    83.241021 
   41000    1245.7638    -24334.84     -25622.9   -576.98062   -687.64003   -284.23776   -759.06408    41.619727    41.619727    83.239454 
   41100    1222.5407   -24334.985   -25599.033   -6.6899859   -319.32651    16.479507    282.77705    41.617693    41.617693    83.235386 
   41200    1233.1035   -24335.109   -25610.079   -186.36162   -453.92829    -125.9523    20.795743    41.615672    41.615672    83.231344 
   41300    1240.6455   -24335.253   -25618.021   -248.75697   -368.61465    273.44044   -651.09669    41.613716    41.613716    83.227433 
   41400    1221.3996   -24335.492    -25598.36    269.64131    1107.3591   -89.683085   -208.75205    41.611827    41.611827    83.223654 
   41500    1229.4215   -24335.706   -25606.868    136.71106    546.45572    21.897387   -158.21993      41.6111      41.6111      83.2222 
   41600    1227.4174   -24336.044   -25605.135   -1.8996708   -85.497279   -10.153254    89.951521    41.610404    41.610404    83.220807 
   41700    1231.5013   -24336.311   -25609.624     105.2057     641.3743   -152.96094   -172.79626    41.610502    41.610502    83.221005 
   41800    1214.8294   -24336.525   -25592.601    540.95857    862.50519    806.57449   -46.203981    41.611639    41.611639    83.223278 
   41900    1223.7467   -24336.663   -25601.959    17.113819   -300.22088     500.7892   -149.22687     41.61407     41.61407    83.228139 
   42000    1221.9078   -24336.775   -25600.169     39.15304    240.54872    551.09742   -674.18702    41.616751    41.616751    83.233502 
   42100    1229.8728   -24336.853   -25608.483   -333.26357    -315.6755   -457.25478   -226.86043    41.619311    41.619311    83.238621 
   42200     1225.965   -24336.991    -25604.58   -275.84957   -94.354556   -308.19851   -424.99565    41.620651    41.620651    83.241303 
   42300    1216.9824   -24337.085   -25595.387   -21.972123   -99.041648    614.40967    -581.2844    41.620954    41.620954    83.241908 
   42400    1232.3859   -24337.116   -25611.344   -482.59027   -358.58327    111.11484   -1200.3024     41.62041     41.62041     83.24082 
   42500     1244.548   -24337.189   -25623.992   -834.78568   -739.08485   -876.75576   -888.51641    41.618476    41.618476    83.236952 
   42600    1217.2972   -24337.225   -25595.852    99.399307   -20.412577    315.78575    2.8247533    41.615719    41.615719    83.231438 
   42700    1227.9646   -24337.224    -25606.88    123.06801    204.19087    144.55535    20.457811    41.613149    41.613149    83.226299 
   42800     1227.588   -24337.304   -25606.571    168.03037    461.75381    331.86938   -289.53207    41.610922    41.610922    83.221845 
   42900    1220.9636    -24337.46   -25599.877    316.31909   -767.04164    561.91759    1154.0813    41.609026    41.609026    83.218051 
   43000    1230.7838   -24337.617   -25610.188     87.55188    572.51233   -1119.1847    809.32802    41.607917    41.607917    83.215834 
   43100    1223.7918   -24337.717   -25603.058    360.85329    1162.8682    262.33335    -342.6417    41.608353    41.608353    83.216706 
   43200    1220.8515   -24337.625   -25599.927    224.09671     80.36079    39.633805    552.29553     41.61126     41.61126    83.222521 
   43300    1245.0684   -24337.493   -25624.834   -533.90873   -1133.2437    306.60046   -775.08296    41.615106    41.615106    83.230213 
   43400    1220.8629    -24337.43   -25599.744   -185.82581   -319.85147    -166.9973   -70.628664    41.618345    41.618345    83.236691 
   43500    1223.1706    -24337.23    -25601.93   -292.25251    -209.2661   -357.67222    -309.8192    41.621421    41.621421    83.242842 
   43600      1209.59   -24337.069   -25587.726     114.2783    901.42185   -608.21559    49.628633    41.623018    41.623018    83.246037 
   43700    1226.5412   -24336.879   -25605.064   -433.32193   -40.674888   -152.77046   -1106.5204    41.623417    41.623417    83.246835 
   43800    1215.3042    -24336.68   -25593.246    2.0461156    485.03677    -533.6835     54.78508    41.622376    41.622376    83.244752 
   43900    1226.7638   -24336.376   -25604.791    -432.7364   -775.18051   -872.01482    348.98612    41.620899    41.620899    83.241797 
   44000    1214.5423   -24335.972   -25591.751    183.76202   -950.39456     718.2166      783.464    41.619173    41.619173    83.238347 
   44100    1235.0926    -24335.52   -25612.546   -106.05011    -70.17626    22.527802   -270.50188    41.617584    41.617584    83.235168 
   44200    1227.1821   -24335.209   -25604.056    177.48674    111.78112   -250.20901     670.8881    41.615588    41.615588    83.231177 
   44300    1215.5329   -24334.939   -25591.742    303.32775    -240.8517    685.71985     465.1151    41.614322    41.614322    83.228644 
   44400     1220.572   -24334.642   -25596.655    201.93523    853.43469   -66.052972   -181.57603    41.614048    41.614048    83.228096 
   44500    1221.6198   -24334.393   -25597.489    71.917416    325.74585   -389.86655    279.87296    41.614219    41.614219    83.228439 
   44600    1213.1612   -24334.104   -25588.455    188.64419   -88.716951   -98.346898    752.99641    41.615295    41.615295    83.230589 
   44700    1225.3124   -24333.805   -25600.719    37.664505   -437.98202    497.41278    53.562754    41.617014    41.617014    83.234029 
   44800    1226.3685   -24333.481   -25601.487   -77.654311   -100.54543   -536.24719    403.82969    41.619033    41.619033    83.238066 
   44900    1206.9982   -24333.219   -25581.198    347.95346    -11.98044   -123.54605    1179.3869    41.620693    41.620693    83.241386 
   45000    1210.5279   -24332.873     -25584.5    199.35838   -512.10204    417.10542    693.07177    41.622386    41.622386    83.244772 
   45100    1216.8909   -24332.402   -25590.609   -190.35804   -50.234381    287.29374   -808.13349    41.624239    41.624239    83.248479 
   45200    1212.8195   -24331.884   -25585.881    18.532241    569.76088   -499.93198   -14.232182    41.625427    41.625427    83.250853 
   45300    1231.2413    -24331.34   -25604.385   -464.06424   -906.87198    301.46262   -786.78337    41.625871    41.625871    83.251741 
   45400    1221.2354   -24330.878   -25593.576   -226.31858   -826.14223    366.29875   -219.11226    41.624962    41.624962    83.249924 
   45500    1224.0026   -24330.424   -25595.984     11.04159   -310.85538    849.06812   -505.08797    41.623184    41.623184    83.246369 
   45600    1228.2182   -24329.914   -25599.833    -293.8731   -672.42566    457.76935   -666.96299    41.621752    41.621752    83.243503 
   45700    1231.6911   -24329.419   -25602.928   -100.84845   -331.12399   -317.37092    345.94955    41.620445    41.620445     83.24089 
   45800     1232.344   -24328.995   -25603.179   -93.177035    78.825112    485.52981   -843.88603    41.619381    41.619381    83.238762 
   45900      1225.92   -24328.745   -25596.288    122.43378    245.25264     11.86453    110.18417    41.618378    41.618378    83.236757 
   46000    1229.1575   -24328.461    -25599.35    194.76824   -451.74969    872.31708    163.73734    41.618453    41.618453    83.236906 
   46100    1227.3415   -24328.182   -25597.194    152.36889   -10.465028    354.45647    113.11523    41.619637    41.619637    83.239275 
   46200    1239.0965   -24328.038   -25609.204   -326.49148   -664.34937   -620.61019    305.48512    41.620985    41.620985    83.241969 
   46300    1222.9236    -24327.98   -25592.424    69.849969    184.38452     240.7489   -215.58352    41.621995    41.621995     83.24399 
   46400    1233.8021   -24327.827   -25603.519    -259.2403   -477.80646   -162.07832   -137.83612    41.623809    41.623809    83.247619 
   46500     1220.407   -24327.707    -25589.55    7.4506346   -128.54647   -318.93745    469.83583    41.625425    41.625425     83.25085 
   46600    1232.9844   -24327.644   -25602.491   -399.33616   -769.95985    36.124103   -464.17274    41.626286    41.626286    83.252573 
   46700     1217.124   -24327.664   -25586.112   -11.234653    302.28813   -506.49501    170.50292    41.625707    41.625707    83.251415 
   46800    1223.6629   -24327.675   -25592.884    -216.2385    300.85157   -824.31769   -125.24939    41.624372    41.624372    83.248744 
   46900    1223.0876   -24327.671   -25592.285    75.320623   -432.89012    150.19288     508.6591    41.622305    41.622305    83.244609 
   47000    1210.0899   -24327.607   -25578.782    401.67475    568.13453    15.766205    621.12352    41.620429    41.620429    83.240859 
   47100    1210.2054    -24327.37   -25578.665    476.71513    190.88382    3.3365762     1235.925    41.619745    41.619745    83.239491 
   47200    1247.3571   -24327.182    -25616.89   -621.58138   -392.87867   -905.38659   -566.47889    41.619232    41.619232    83.238463 
   47300    1232.7621   -24327.068   -25601.685   -206.26026    102.04862   -468.44134   -252.38807    41.618399    41.618399    83.236799 
   47400    1230.1789   -24326.916   -25598.862   -40.267837     27.27175     223.0836   -371.15886    41.618077    41.618077    83.236154 
   47500    1221.9804   -24326.866   -25590.335    160.53056   -194.50342   -392.96231    1069.0574    41.617554    41.617554    83.235108 
   47600     1239.673   -24326.872   -25608.635   -168.21657   -506.58313    308.67482   -306.74139    41.617182    41.617182    83.234363 
   47700    1228.1798   -24327.015   -25596.894    45.896248   -430.17295     60.51987    507.34182    41.616746    41.616746    83.233492 
   47800    1219.1984   -24327.101   -25587.693    523.18256    907.21758     211.9781    450.35199    41.617593    41.617593    83.235186 
   47900    1224.4587   -24327.177   -25593.209    80.852795    193.47709    685.82303   -636.74173    41.619938    41.619938    83.239875 
   48000     1222.168   -24327.296   -25590.959    108.24276       588.17    -1064.099    800.65727     41.62212     41.62212     83.24424 
   48100    1223.6316   -24327.395   -25592.571   -83.503441    534.67393   -947.15759    161.97333    41.624232    41.624232    83.248464 
   48200    1227.1413   -24327.441   -25596.246   -376.55939    167.56698   -787.67607   -509.56909    41.625935    41.625935    83.251869 
   48300    1226.1134   -24327.342   -25595.084   -395.73012    -411.3551   -91.937401   -683.89786     41.62712     41.62712     83.25424 
   48400    1235.8744   -24327.208   -25605.042   -558.34496   -859.10001   -23.081104   -792.85376    41.627064    41.627064    83.254128 
   48500    1213.2333   -24327.092   -25581.517    83.491736    673.45093   -317.49937   -105.47635    41.625753    41.625753    83.251506 
   48600     1226.861   -24326.884   -25595.399     -226.419   -826.21126    336.52599   -189.57171    41.624492    41.624492    83.248983 
   48700    1233.2851   -24326.695   -25601.852   -225.44497   -170.06514   -579.49533    73.225557     41.62293     41.62293    83.245861 
   48800    1219.6994   -24326.534   -25587.644    95.881999    632.29122    122.60468    -467.2499    41.621225    41.621225     83.24245 
   48900    1229.1094   -24326.394   -25597.234    104.30409    741.57142   -369.20031   -59.458854    41.619623    41.619623    83.239245 
   49000    1215.3106   -24326.205   -25582.777    506.99238    294.70294    809.54095    416.73325    41.619338    41.619338    83.238677 
   49100    1212.1421   -24326.021   -25579.318    562.45475    764.20753    545.88455    377.27217    41.619907    41.619907    83.239815 
   49200    1229.4719   -24325.842   -25597.057    1.1830547    133.54832    88.577342    -218.5765     41.62126     41.62126    83.242519 
   49300    1217.3684   -24325.812   -25584.513    213.50966   -344.12468    490.77291    493.88075    41.622482    41.622482    83.244963 
   49400    1213.9767   -24325.742   -25580.936    386.48546    274.35539   -315.84926    1200.9503    41.624268    41.624268    83.248535 
   49500    1217.4386   -24325.628   -25584.401   -26.181037     99.78405   -298.77392    120.44675    41.626347    41.626347    83.252695 
   49600    1236.5326    -24325.55   -25604.066   -525.85804    -662.6398   -530.83413    -384.1002    41.627778    41.627778    83.255556 
   49700    1223.8546   -24325.574   -25590.981   -19.290549   -48.406831   -581.09763    571.63282     41.62772     41.62772    83.255439 
   49800    1227.3125   -24325.625   -25594.607   -215.80175   -33.519743   -248.66782   -365.21769    41.626989    41.626989    83.253977 
   49900    1246.3911   -24325.755   -25614.463   -649.30124   -1184.5439   -428.16401   -335.19576    41.625284    41.625284    83.250568 
   50000    1232.6482   -24326.067   -25600.566   -260.91013    -561.7898    174.17761   -395.11819    41.621981    41.621981    83.243962 
Loop time of 1447.23 on 1 procs for 50000 steps with 8000 atoms

Pair  time (%) = 1306.71 (90.2902)
Neigh time (%) = 99.3231 (6.86298)
Comm  time (%) = 8.57918 (0.5928)
Outpt time (%) = 0.624652 (0.0431619)
Other time (%) = 31.9957 (2.21082)

Nlocal:    8000 ave 8000 max 8000 min
Histogram: 1 0 0 0 0 0 0 0 0 0
Nghost:    9014 ave 9014 max 9014 min
Histogram: 1 0 0 0 0 0 0 0 0 0
Neighs:    285099 ave 285099 max 285099 min
Histogram: 1 0 0 0 0 0 0 0 0 0

Total # of neighbors = 285099
Ave neighs/atom = 35.6374
Neighbor list builds = 5000
Dangerous builds = 0
unfix		1

# Melt half the system
region  liquid block INF INF INF INF INF ${nzhalf}
region  liquid block INF INF INF INF INF 10
group	liquid_group region liquid
4007 atoms in group liquid_group

# Heat up one side to Tmelt to make sure it is melted
fix 2 liquid_group npt temp ${Tmelt} ${Tmelt} 1 z 0 0 10 drag 1.0
fix 2 liquid_group npt temp 2000 ${Tmelt} 1 z 0 0 10 drag 1.0
fix 2 liquid_group npt temp 2000 2000 1 z 0 0 10 drag 1.0
run		${eqsteps}
run		50000
Memory usage per processor = 5.95825 Mbytes
Step Temp TotEng PotEng Press Pxx Pyy Pzz Lx Ly Lz 
   50000    1232.6482   -24326.067   -25600.566   -260.91013    -561.7898    174.17761   -395.11819    41.621981    41.621981    83.243962 
   50100    1228.3427   -24323.768   -25593.815    115.39163   -374.73907   -0.1984167    721.11238    41.621981    41.621981     83.24395 
   50200    1224.3246   -24318.052   -25583.945    377.68444   -152.98884    638.45675    647.58541    41.621981    41.621981    83.244219 
   50300    1235.8895   -24311.722   -25589.572    339.90518   0.28908085     96.80454    922.62192    41.621981    41.621981    83.244802 
   50400     1222.557   -24305.974   -25570.039    881.40018    645.60534    1012.9092    985.68595    41.621981    41.621981     83.24584 
   50500    1236.9923    -24300.03   -25579.021    722.87053    766.03501     840.3202    562.25637    41.621981    41.621981      83.2473 
   50600    1241.3425   -24293.576   -25577.065    761.42294    287.34983    818.27701     1178.642    41.621981    41.621981      83.2492 
   50700    1237.8329   -24286.809   -25566.669    835.60206      608.338     735.6397    1162.8285    41.621981    41.621981    83.251621 
   50800    1247.0488   -24279.897   -25569.286    800.75007    396.61855    775.08831    1230.5434    41.621981    41.621981    83.254651 
   50900    1252.2558   -24272.969   -25567.741    1046.1902    1158.9793    1126.2446    853.34661    41.621981    41.621981    83.258363 
   51000    1242.3427   -24265.965   -25550.488    1439.5531    1160.1005    1610.0595    1548.4992    41.621981    41.621981    83.262587 
   51100    1248.5916   -24258.934   -25549.917    1464.4327    1514.9864    1148.4189    1729.8927    41.621981    41.621981    83.267474 
   51200    1255.4185   -24251.785   -25549.828    1464.5421    1509.4264    1613.1563    1271.0435    41.621981    41.621981    83.273014 
   51300    1250.8367   -24244.664   -25537.969    1887.7473    1679.7905    1734.6689    2248.7824    41.621981    41.621981    83.279224 
   51400    1261.6519   -24237.503    -25541.99    1714.5578    1272.6876    2198.7962    1672.1896    41.621981    41.621981    83.286502 
   51500    1275.5675   -24230.296   -25549.171    1565.5513    1079.3087    1212.7387    2404.6064    41.621981    41.621981    83.294705 
   51600    1265.0867   -24223.026   -25531.064    1850.3427    1958.9108    1460.3238    2131.7936    41.621981    41.621981     83.30398 
   51700    1269.1138   -24215.788    -25527.99     1925.906    1557.2821     1914.569     2305.867    41.621981    41.621981    83.314222 
   51800    1276.4593   -24208.517   -25528.315      1900.76    1687.5868    1918.1309    2096.5623    41.621981    41.621981    83.325468 
   51900    1287.4417   -24201.221   -25532.374    1767.2794    1714.7523    1830.7884    1756.2974    41.621981    41.621981    83.337727 
   52000    1287.6647     -24193.9   -25525.283    1981.2418    837.04604    2498.3582    2608.3212    41.621981    41.621981    83.351059 
   52100     1277.827   -24186.621   -25507.833    2242.6392    1738.6177    2508.4512    2480.8487    41.621981    41.621981    83.365627 
   52200     1275.644   -24179.316   -25498.271    2450.9581    2496.0099    2495.8423     2361.022    41.621981    41.621981    83.381182 
   52300    1279.1954   -24172.016   -25494.642    2477.5481    1709.8051    3096.3361     2626.503    41.621981    41.621981    83.397654 
   52400    1288.7782   -24164.666   -25497.201    2355.0376    2598.1579    2203.5788     2263.376    41.621981    41.621981    83.415124 
   52500    1286.6792   -24157.274   -25487.638    2451.0979    2195.9816    2961.3271     2195.985    41.621981    41.621981    83.433507 
   52600    1281.6779   -24149.928   -25475.122    2708.3387    2883.3643    2650.6225    2591.0291    41.621981    41.621981    83.452816 
   52700    1302.1826    -24142.56   -25488.954    2272.2916    2273.3318    2527.4303    2016.1126    41.621981    41.621981    83.473119 
   52800     1297.246   -24135.169   -25476.459    2414.1732    2231.9877    2289.6039    2720.9281    41.621981    41.621981    83.494296 
   52900    1294.6956   -24127.736   -25466.389    2601.0926    3073.1908    2494.8335    2235.2535    41.621981    41.621981     83.51635 
   53000    1298.9053   -24120.374   -25463.379    2412.6821    1837.6959     2799.737    2600.6135    41.621981    41.621981    83.539134 
   53100     1285.868   -24112.998   -25442.524    2896.9146    2201.1304    3534.2105     2955.403    41.621981    41.621981    83.562891 
   53200    1293.5156   -24105.637    -25443.07    2837.4692    3096.7812     2804.804    2610.8223    41.621981    41.621981    83.587592 
   53300    1300.5221   -24098.271   -25442.948     2700.824    2355.4174    3415.4048    2331.6497    41.621981    41.621981    83.613107 
   53400    1289.6776    -24090.89   -25424.354    2896.8683    3103.3703    2713.5356    2873.6989    41.621981    41.621981     83.63947 
   53500    1301.3522   -24083.448   -25428.984    2792.2928    3213.4864     2511.252    2652.1401    41.621981    41.621981    83.666614 
   53600    1308.3848   -24076.055   -25428.862    2598.8707    2375.3686    2977.3693    2443.8743    41.621981    41.621981    83.694462 
   53700    1301.5118   -24068.633   -25414.334    2781.9759    3114.5692    2983.8141    2247.5445    41.621981    41.621981    83.722959 
   53800    1297.2844   -24061.233   -25402.563    2869.3305    2002.0569    3587.7397     3018.195    41.621981    41.621981     83.75202 
   53900     1299.054   -24053.862   -25397.022    2901.4556    2637.0942    3212.0393    2855.2332    41.621981    41.621981    83.781722 
   54000    1288.7761   -24046.477   -25379.009    2965.5917    3164.4983    3001.0796    2731.1972    41.621981    41.621981    83.812011 
   54100    1289.8733    -24039.11   -25372.777    3021.5961    2908.9734    3729.4484    2426.3665    41.621981    41.621981    83.842942 
   54200    1294.9711   -24031.744   -25370.681    2862.8205    2179.1853    3709.4132    2699.8631    41.621981    41.621981    83.874481 
   54300    1308.2847   -24024.349   -25377.052    2769.7513    2816.4969    3227.7779     2264.979    41.621981    41.621981    83.906601 
   54400    1292.9486   -24016.977   -25353.824    2920.4777    3660.9442    2747.2803    2353.2085    41.621981    41.621981    83.939098 
   54500    1296.5179     -24009.6   -25350.137    2768.8546    3333.7933    2590.3494     2382.421    41.621981    41.621981    83.971935 
   54600     1287.283   -24002.169   -25333.158    3390.0615    3517.0349    3992.8193    2660.3303    41.621981    41.621981    84.005085 
   54700    1290.7813   -23994.859   -25329.465    3079.9248     3341.667    2957.7437    2940.3638    41.621981    41.621981    84.038609 
[...]
  136300    1234.2998   -24043.105   -25319.311    676.03652    246.07863    1305.6728    476.35816    41.621981    41.621981    84.344518 
  136400    1220.1954   -24043.388   -25305.012    1012.8989    646.85158    1868.2039    523.64121    41.621981    41.621981    84.345455 
  136500         1229   -24043.632   -25314.359    804.25162    796.70362    812.88181    803.16944    41.621981    41.621981     84.34681 
  136600    1225.6846   -24043.843   -25311.142    770.51321    1467.1506    941.81341   -97.424363    41.621981    41.621981    84.348701 
  136700    1219.2947    -24044.02   -25304.712    813.54837    685.10334    1709.1564    46.385361    41.621981    41.621981    84.350473 
  136800    1220.4636    -24044.14    -25306.04    762.38161    646.10283    1448.7644    192.27757    41.621981    41.621981    84.352267 
  136900    1224.6848   -24044.224   -25310.489    762.77803    101.54527    1954.3356    232.45317    41.621981    41.621981    84.354361 
  137000    1222.5556   -24044.273   -25308.337    746.77417    1121.2613    1154.6902   -35.629006    41.621981    41.621981      84.3566 
  137100    1221.8631   -24044.315   -25307.663    849.67299    1409.5886    417.79315    721.63724    41.621981    41.621981    84.358793 
  137200    1222.8307   -24044.351   -25308.699    891.21637    227.59131    1777.3129    668.74488    41.621981    41.621981    84.361284 
  137300    1214.9933   -24044.385    -25300.63    1132.5732    974.38923    1473.3344    949.99594    41.621981    41.621981    84.364178 
  137400    1225.0659   -24044.407   -25311.066    641.03803    559.17363    1541.6058   -177.66532    41.621981    41.621981    84.367501 
  137500    1224.1209   -24044.444   -25310.127    794.84721    -642.3162     1842.377    1184.4809    41.621981    41.621981     84.37089 
  137600    1215.2507   -24044.488   -25300.998    890.48962    137.61302    1734.7108    799.14509    41.621981    41.621981    84.374967 
  137700    1222.5718   -24044.497   -25308.578    636.04903 -0.026328391    1477.5537    430.61967    41.621981    41.621981    84.379578 
  137800    1218.1962   -24044.507   -25304.063     575.7125     204.0419    1543.5688   -20.473171    41.621981    41.621981    84.384387 
  137900    1228.9746   -24044.523   -25315.224    483.69182    416.09547    937.36388    97.616119    41.621981    41.621981    84.389135 
  138000    1222.9027    -24044.57   -25308.993    501.27854    106.44737    1465.8281   -68.439861    41.621981    41.621981     84.39378 
  138100    1221.7911   -24044.589   -25307.863    474.28456    758.16846    547.87564    116.80957    41.621981    41.621981    84.398476 
  138200    1223.2777   -24044.594   -25309.404     625.3336    1348.9173    984.59201   -457.50854    41.621981    41.621981    84.403291 
  138300    1218.5789   -24044.576   -25304.528    627.97241    696.87607    1329.0693   -142.02815    41.621981    41.621981    84.407754 
  138400    1218.4153   -24044.517     -25304.3    557.79404    809.89834    973.00568   -109.52191    41.621981    41.621981    84.411834 
  138500    1220.4887   -24044.428   -25306.355    389.56688    998.02112    679.62701    -508.9475    41.621981    41.621981    84.415589 
  138600    1225.9464   -24044.372   -25311.941     108.6932    123.61454    763.87072   -561.40567    41.621981    41.621981    84.418806 
  138700    1218.9395     -24044.3   -25304.625    420.63845    512.93256    1343.4298   -594.44698    41.621981    41.621981    84.421528 
  138800    1225.3638   -24044.245   -25311.213    530.45211    524.80243    1065.6273   0.92655651    41.621981    41.621981    84.423672 
  138900    1225.6576   -24044.201   -25311.472    84.787893    142.74611    156.29173    -44.67417    41.621981    41.621981    84.425645 
  139000    1228.3016   -24044.158   -25314.163    278.58302   -15.614315    903.34433   -51.980946    41.621981    41.621981    84.427455 
  139100    1221.4983   -24044.101   -25307.071    363.56378    9.8237001    1385.9092   -305.04152    41.621981    41.621981    84.429046 
  139200    1225.4848   -24044.064   -25311.157     202.5843    612.55562    212.55763   -217.36035    41.621981    41.621981    84.430413 
  139300    1225.5772   -24044.058   -25311.246    225.65751    590.07351    43.784944    43.114081    41.621981    41.621981    84.431559 
  139400    1221.3451   -24044.058    -25306.87    578.70034    867.77227    1437.8467   -569.51799    41.621981    41.621981    84.432582 
  139500    1215.9887   -24044.038   -25301.312    420.22016    232.51652    1442.6484   -414.50444    41.621981    41.621981    84.433112 
  139600    1219.4347   -24044.001   -25304.838    281.35489    503.27642    1151.7049   -810.91664    41.621981    41.621981    84.433037 
  139700    1223.6726   -24043.976   -25309.195    280.62236   -89.408262    1507.3267   -576.05138    41.621981    41.621981    84.432397 
  139800    1228.9922   -24043.972   -25314.691     2.737122    65.614461    710.43661    -767.8397    41.621981    41.621981     84.43136 
  139900     1214.476   -24043.992   -25299.702    527.31917    173.07373     1362.849    46.034724    41.621981    41.621981    84.429904 
  140000    1220.4861   -24043.944   -25305.867    418.70432    364.57836    1284.7748    -393.2402    41.621981    41.621981    84.428429 
  140100    1222.1952   -24043.842   -25307.533    247.09568    221.21412    1267.9134   -747.84044    41.621981    41.621981     84.42675 
  140200    1228.7559   -24043.743   -25314.217    219.93354    231.65144    507.42795   -79.278766    41.621981    41.621981    84.424743 
  140300      1220.63   -24043.688   -25305.761    462.94509    106.36744     1096.147    186.32086    41.621981    41.621981    84.422721 
  140400    1229.5743   -24043.652   -25314.973    289.77235    704.41603    781.56241   -616.66138    41.621981    41.621981    84.420644 
  140500    1237.5695   -24043.595   -25323.183   -81.984339   -701.93191    575.86345   -119.88456    41.621981    41.621981    84.418142 
  140600    1234.0811   -24043.542   -25319.522    59.540415    721.02261    89.059197   -631.46056    41.621981    41.621981    84.415666 
  140700    1225.0779   -24043.498    -25310.17    511.52899    869.38505    283.89648    381.30542    41.621981    41.621981    84.413142 
  140800    1214.2736   -24043.439    -25298.94    728.62684    417.65662    1814.6332   -46.409324    41.621981    41.621981    84.410773 
  140900    1215.2728   -24043.383   -25299.916    559.98266    336.62617    1061.9203    281.40152    41.621981    41.621981    84.408201 
  141000    1226.4849   -24043.353   -25311.479    442.80821    322.39792    1186.0614   -180.03468    41.621981    41.621981    84.405396 
  141100    1222.9185   -24043.374   -25307.813    678.55135    1159.4963    1119.8979   -243.74021    41.621981    41.621981    84.402304 
  141200     1227.776   -24043.401   -25312.863    292.81275    525.47246    442.77755    -89.81176    41.621981    41.621981    84.399005 
  141300    1234.2592   -24043.451   -25319.615    488.70598      458.557    1180.8486   -173.28763    41.621981    41.621981    84.395579 
  141400     1228.796    -24043.53   -25314.046    296.94613    257.83336    488.37397    144.63105    41.621981    41.621981    84.392011 
  141500    1225.9886   -24043.611   -25311.224    494.93021     970.8543    374.51855    139.41778    41.621981    41.621981    84.388578 
  141600    1218.0042   -24043.731   -25303.089    744.03975    869.48006    1481.5839   -118.94475    41.621981    41.621981    84.385073 
  141700    1233.6948   -24043.847   -25319.428    428.16552    467.41689    968.19217    -151.1125    41.621981    41.621981    84.381392 
  141800    1230.2812   -24044.003   -25316.055    567.23607     213.4873    1442.8904    45.330555    41.621981    41.621981    84.377956 
  141900    1230.4666   -24044.153   -25316.396    448.97525    948.80918    264.68637    133.43019    41.621981    41.621981    84.374893 
  142000    1229.5026   -24044.308   -25315.554    349.29094    342.18506    983.25687   -277.56911    41.621981    41.621981    84.371941 
  142100    1213.0509   -24044.479   -25298.716    1062.1772    1524.5289    1596.9183     65.08438    41.621981    41.621981    84.368837 
  142200    1232.9986   -24044.632   -25319.493    360.65678    1005.0898    833.84624   -756.96569    41.621981    41.621981     84.36546 
  142300    1213.3194   -24044.825   -25299.339    1005.1655    1099.1514    1289.2058    627.13933    41.621981    41.621981    84.361687 
  142400    1227.2261   -24044.983   -25313.876     656.2517     1143.383    513.72294    311.64911    41.621981    41.621981    84.358251 
  142500     1222.645   -24045.139   -25309.295    915.47718    909.49585    1415.8515    421.08417    41.621981    41.621981    84.354993 
  142600    1228.1851   -24045.305   -25315.189    716.23448    728.60833    754.19342     665.9017    41.621981    41.621981    84.352018 
  142700    1229.1178   -24045.478   -25316.327    640.51759    1168.2722    528.38935     224.8912    41.621981    41.621981    84.349593 
  142800      1223.81   -24045.671   -25311.032    787.31185    849.66128    212.96216    1299.3121    41.621981    41.621981    84.347522 
  142900    1229.6838   -24045.842   -25317.276    640.16543    280.96844    974.05856     665.4693    41.621981    41.621981    84.346301 
  143000    1233.2454   -24046.038   -25321.154    366.76423    450.75429    1112.7929   -463.25446    41.621981    41.621981    84.345639 
  143100    1227.9959   -24046.226   -25315.914    780.89888    721.00057    1212.0631    409.63296    41.621981    41.621981    84.345094 
  143200    1223.5755     -24046.4   -25311.519    717.68006    39.223827    1177.7598    936.05651    41.621981    41.621981    84.344919 
  143300    1227.0828   -24046.593   -25315.338    771.07175    1795.5553    1290.9139   -773.25395    41.621981    41.621981    84.345412 
  143400    1224.1795   -24046.776   -25312.519    664.78125    1312.1961    368.63966    313.50796    41.621981    41.621981    84.345853 
  143500    1242.0687   -24046.955   -25331.195    323.77018    372.48581    508.15555    90.669175    41.621981    41.621981    84.346568 
  143600    1231.9797   -24047.198   -25321.006    626.40055    971.93024    672.40668    234.86473    41.621981    41.621981    84.347486 
  143700     1223.857   -24047.478   -25312.887    640.72301    655.90784     1427.685    -161.4238    41.621981    41.621981    84.348465 
  143800    1225.5609   -24047.761   -25314.932    665.19575    1133.4331    924.55451   -62.400371    41.621981    41.621981    84.349368 
  143900    1219.4647   -24048.014   -25308.882    1025.7273    289.04756    1681.7893    1106.3449    41.621981    41.621981    84.350305 
  144000    1214.8696   -24048.222   -25304.338    842.23647    229.88388    1794.3703    502.45521    41.621981    41.621981    84.351772 
  144100    1218.7052   -24048.438    -25308.52    747.69592    1105.8628    945.12746     192.0975    41.621981    41.621981    84.353326 
  144200    1220.1166   -24048.606   -25310.147    855.31079    1145.5026    1825.0882   -404.65844    41.621981    41.621981    84.354896 
  144300    1221.6861   -24048.733   -25311.898     799.8196    1144.0634    736.21293    519.18249    41.621981    41.621981    84.356217 
  144400    1225.5815   -24048.875   -25316.067    727.27586    1279.0488    1178.1297   -275.35088    41.621981    41.621981    84.357521 
  144500    1225.3579    -24048.98   -25315.941    706.29963    1112.7101    716.47538    289.71341    41.621981    41.621981     84.35852 
  144600     1227.017   -24049.034   -25317.711    441.72433    515.15842    297.67083    512.34373    41.621981    41.621981    84.359631 
  144700    1231.4384   -24049.088   -25322.337    381.92531    428.38282    1176.4733   -459.08015    41.621981    41.621981    84.360977 
  144800    1214.6265   -24049.132   -25304.998    802.72797    478.24912      1117.45    812.48485    41.621981    41.621981    84.362067 
  144900    1221.3732    -24049.13   -25311.971    522.41681    707.06408    1300.8465   -440.66014    41.621981    41.621981    84.363412 
  145000    1223.4456   -24049.113   -25314.097    657.99413    423.62752    1014.1598    536.19508    41.621981    41.621981    84.364638 
  145100    1227.5063   -24049.087   -25318.269    626.82843    54.222726    1091.9631    734.29944    41.621981    41.621981    84.366174 
  145200     1223.647   -24049.056   -25314.248    509.59892   -19.854406    892.31741    656.33375    41.621981    41.621981    84.368288 
  145300    1218.9808    -24048.99   -25309.357    691.89975    268.02812    1674.5896    133.08154    41.621981    41.621981    84.370802 
  145400     1222.014   -24048.919   -25312.423    550.49945    619.13687     674.3848    357.97669    41.621981    41.621981    84.373301 
  145500    1221.6363   -24048.874   -25311.988    586.17142    724.24414     1387.299    -353.0289    41.621981    41.621981    84.375954 
  145600    1234.0771   -24048.819   -25324.795    116.61249   -32.897791    770.97873   -388.24347    41.621981    41.621981    84.378392 
  145700     1218.825   -24048.761   -25308.968    475.80079     648.8412    1650.2228   -871.66162    41.621981    41.621981    84.380473 
  145800    1229.5503   -24048.678   -25319.974    257.85049   -221.70314    1549.2437   -553.98906    41.621981    41.621981    84.382007 
  145900    1223.8954   -24048.601    -25314.05    469.84639    66.454141    1561.2531   -218.16806    41.621981    41.621981    84.383239 
  146000    1217.6086   -24048.506   -25307.455    631.25207    1277.9055    661.21452   -45.363824    41.621981    41.621981    84.384239 
  146100    1219.1469   -24048.388   -25308.928    717.47313    554.53489    1543.8692    54.015353    41.621981    41.621981    84.385066 
  146200     1217.354   -24048.229   -25306.914    573.98628    496.39177    1315.4425   -89.875451    41.621981    41.621981    84.385875 
  146300    1209.8889   -24048.031   -25298.998    939.89605    1696.5542    1136.6506   -13.516579    41.621981    41.621981    84.386458 
  146400     1218.245   -24047.771   -25307.378    494.68719    1154.7324    733.28329   -403.95417    41.621981    41.621981    84.387008 
  146500     1221.313   -24047.492   -25310.271    578.12504     1460.887    457.16042   -183.67229    41.621981    41.621981    84.387479 
  146600    1223.3566   -24047.213   -25312.104    437.20295    1054.7672    169.21775    87.623959    41.621981    41.621981    84.387688 
  146700    1215.3673   -24046.927   -25303.559    605.39244    1389.6888    1007.4493   -580.96086    41.621981    41.621981    84.387841 
  146800    1214.7037   -24046.597   -25302.542    756.82986    997.72039    1546.2727   -273.50349    41.621981    41.621981    84.387725 
  146900    1220.6325   -24046.277   -25308.352    501.75766    875.34554    629.23774   0.68968099    41.621981    41.621981    84.387241 
  147000    1216.1997   -24045.931   -25303.423    549.31342    998.94993   -237.92055    886.91087    41.621981    41.621981    84.386816 
  147100     1214.716   -24045.593   -25301.551    637.40039    1279.6261     867.4052   -234.83009    41.621981    41.621981    84.386664 
  147200    1215.8913   -24045.263   -25302.436    490.17402    316.82521    1301.6552    -147.9583    41.621981    41.621981    84.386228 
  147300    1217.9001   -24044.931   -25304.182    760.14572    1423.1176    1080.2086   -222.88903    41.621981    41.621981    84.385642 
  147400     1225.878    -24044.62   -25312.119    441.26997    191.35913    907.60642    224.84438    41.621981    41.621981    84.384945 
  147500     1225.209   -24044.353    -25311.16    375.61573    1486.3842   -411.69687    52.159831    41.621981    41.621981    84.384354 
  147600    1223.4903   -24044.139   -25309.169    710.23542    289.23763    1390.9734    450.49528    41.621981    41.621981    84.383892 
  147700    1220.4192   -24043.937   -25305.792     540.4832    580.76475     213.1302    827.55464    41.621981    41.621981    84.383954 
  147800    1230.7739   -24043.756   -25316.317    418.30624    303.24988    1135.5208   -183.85202    41.621981    41.621981    84.384404 
  147900    1223.4858   -24043.627   -25308.652    693.60756    1291.9877    1042.8781   -254.04315    41.621981    41.621981    84.384649 
  148000    1222.2106   -24043.503    -25307.21    591.89752    1504.5238     297.5285   -26.359719    41.621981    41.621981    84.384645 
  148100    1224.4129   -24043.411   -25309.395    757.63586    1259.4258    1008.4308     5.051001    41.621981    41.621981    84.384458 
  148200    1217.7689   -24043.327   -25302.442    694.85286     835.1369      1065.53     183.8917    41.621981    41.621981    84.384107 
  148300    1215.4796   -24043.261   -25300.009     887.3614    1637.6188    1289.4544   -264.98898    41.621981    41.621981    84.383595 
  148400    1226.5653   -24043.224   -25311.433    477.40689    902.16468    1203.3632   -673.30725    41.621981    41.621981    84.382651 
  148500    1231.9961   -24043.183   -25317.008    321.34102    571.48306    615.85005   -223.31005    41.621981    41.621981     84.38121 
  148600    1228.9458   -24043.155   -25313.826    627.13237      881.359    1042.4419   -42.403795    41.621981    41.621981    84.379728 
  148700    1234.3349   -24043.145   -25319.388    381.59191    952.26105    550.58529   -358.07059    41.621981    41.621981    84.378295 
  148800    1224.2012   -24043.145   -25308.911    625.65881    978.79768    732.39645    165.78229    41.621981    41.621981    84.376651 
  148900    1216.9119   -24043.173   -25301.401    1007.4869    976.13632    1555.2023     491.1222    41.621981    41.621981     84.37492 
  149000    1231.5673   -24043.202   -25316.584    376.58518    226.67644    1338.7447   -435.66557    41.621981    41.621981     84.37336 
  149100    1213.8927   -24043.225   -25298.332     828.7217    586.86643    1638.2151    261.08362    41.621981    41.621981    84.371672 
  149200    1225.6787   -24043.227   -25310.519     800.5772    1478.1014     1341.017   -417.38679    41.621981    41.621981    84.369924 
  149300    1211.4544   -24043.214     -25295.8    930.55545    1106.2295     1688.148   -2.7110878    41.621981    41.621981    84.367869 
  149400    1224.9255   -24043.212   -25309.726    733.18132    944.39897    660.97106    594.17392    41.621981    41.621981    84.365685 
  149500    1212.5643    -24043.19   -25296.923    1037.4525    1384.1013    1157.3885    570.86761    41.621981    41.621981    84.363922 
  149600    1219.3871   -24043.147   -25303.935    992.04977    1563.9137    1401.8565    10.379143    41.621981    41.621981    84.362211 
  149700    1222.5199   -24043.096   -25307.123    855.10118    384.04196    1893.8125     287.4491    41.621981    41.621981    84.360449 
  149800    1228.2948   -24043.049   -25313.047    775.98972    1149.7758    1067.9428     110.2505    41.621981    41.621981    84.358832 
  149900    1229.8041   -24043.039   -25314.598    765.48836    643.32671    1400.8899    252.24847    41.621981    41.621981    84.357229 
  150000    1228.4143   -24043.031   -25313.152    604.24669    939.66073    951.84617   -78.766832    41.621981    41.621981    84.355843 
Loop time of 1391.98 on 1 procs for 50000 steps with 8000 atoms

Pair  time (%) = 1260.8 (90.5756)
Neigh time (%) = 97.6782 (7.01719)
Comm  time (%) = 8.265 (0.593756)
Outpt time (%) = 0.624268 (0.0448473)
Other time (%) = 24.6183 (1.76857)

Nlocal:    8000 ave 8000 max 8000 min
Histogram: 1 0 0 0 0 0 0 0 0 0
Nghost:    8688 ave 8688 max 8688 min
Histogram: 1 0 0 0 0 0 0 0 0 0
Neighs:    280020 ave 280020 max 280020 min
Histogram: 1 0 0 0 0 0 0 0 0 0

Total # of neighbors = 280020
Ave neighs/atom = 35.0025
Neighbor list builds = 5000
Dangerous builds = 0
