LAMMPS (13 Jan 2014)
dimension       3
boundary        p p p
units           metal

atom_style	atomic
neighbor	0.3 bin
neigh_modify	every 10 delay 0 check no

# Number of steps for the equilibration steps
variable        eqsteps equal 50000

# Number of steps to run our NPH simulation
variable        simsteps equal 200000

# Our trial melting temperature
variable	T equal 1100.0
variable	T2 equal 2*${T}
variable	T2 equal 2*1100

# Some high temperature to melt the crystal
variable	Tmelt equal 2000.0

#System size
variable	nx equal 4
variable	ny equal 4
variable	nz equal 20
variable	nzhalf equal ${nz}*0.5
variable	nzhalf equal 20*0.5
variable	a equal 4.050
variable	length equal ${nz}*${a}
variable	length equal 20*${a}
variable	length equal 20*4.05

lattice		fcc ${a}
lattice		fcc 4.05
Lattice spacing in x,y,z = 4.05 4.05 4.05

region         box block 0 ${nx} 0 ${ny} 0 ${nz}
region         box block 0 4 0 ${ny} 0 ${nz}
region         box block 0 4 0 4 0 ${nz}
region         box block 0 4 0 4 0 20
create_box     1 box
Created orthogonal box = (0 0 0) to (16.2 16.2 81)
  1 by 1 by 1 MPI processor grid
create_atoms   1 box
Created 1280 atoms

mass		1 26.9815

pair_style	eam/alloy
pair_coeff	* * Al_potential.alloy Al

velocity	all create ${T2} 1337
velocity	all create 2200 1337

# Create a dump file. This can be visualized with
# e.g. OVITO (http://www.ovito.org/)
dump		id all atom 1000 atomsdump

# 1 fs timestep
timestep	0.001
thermo_style	custom step temp etotal pe press pxx pyy pzz lx ly lz

# output every 100th timestep
thermo		100

# Equilibration the whole system to the trial melting temperature
fix		1 all npt temp ${T} ${T} 1 iso 0 0 3 drag 1.0
fix		1 all npt temp 1100 ${T} 1 iso 0 0 3 drag 1.0
fix		1 all npt temp 1100 1100 1 iso 0 0 3 drag 1.0
run		${eqsteps}
run		50000
Memory usage per processor = 3.13549 Mbytes
Step Temp TotEng PotEng Press Pxx Pyy Pzz Lx Ly Lz 
       0         2200   -3984.6481   -4348.3603    14211.452     13706.04    14070.488    14857.829         16.2         16.2           81 
     100    1030.1708   -3988.5329   -4158.8446    36680.914    37921.428    37177.422    34943.893    16.236599    16.236599    81.182993 
     200    1042.6935   -3995.4989   -4167.8809    21927.013    22149.493    21829.578    21801.967    16.337859    16.337859    81.689297 
     300    986.05244   -3999.4895   -4162.5073    7533.2709    8042.1609    7065.6984    7491.9533     16.45644     16.45644    82.282198 
     400    990.54328   -3999.4133   -4163.1736   -3817.7789   -4200.0515   -3189.0466   -4064.2384    16.549134    16.549134     82.74567 
     500    976.61356   -3997.7715   -4159.2289   -9513.9531   -10278.169   -10324.058   -7939.6322    16.603265    16.603265    83.016325 
     600    948.50406   -3996.2572   -4153.0674   -10735.419   -11147.019   -9828.1624   -11231.077    16.623663    16.623663    83.118313 
     700    964.74515   -3995.2603   -4154.7556   -10161.632    -11024.11   -9943.7407   -9517.0452    16.618276    16.618276    83.091379 
     800    958.04898   -3994.5778   -4152.9661   -7115.3198   -7957.0995   -7550.2688   -5838.5912    16.594223    16.594223    82.971116 
     900     992.2653   -3993.8024   -4157.8474   -3609.0923   -3776.9089   -4328.6344   -2721.7335    16.559727    16.559727    82.798636 
    1000    997.05404   -3992.7537   -4157.5904    231.70015    282.15337    10.829019    402.11806    16.523597    16.523597    82.617987 
    1100    1023.3235   -3991.4526   -4160.6323    3642.4628    3044.6813    2729.3522    5153.3548    16.493859    16.493859    82.469294 
    1200    1026.4104   -3990.1945   -4159.8845    5809.1536    6501.7264    5965.5337    4960.2005    16.475813    16.475813    82.379067 
    1300    1023.3722    -3989.173   -4158.3607    6827.8335    7622.1062    5624.9141    7236.4801    16.471608    16.471608    82.358038 
    1400    1031.6479   -3988.4428   -4158.9987    5547.5532    5594.6914    5130.5773    5917.3909    16.480232    16.480232    82.401159 
    1500     992.7095   -3987.8528   -4151.9712    4312.3799    5540.6112      4861.84    2534.6886    16.498745    16.498745    82.493724 
    1600    1019.2898    -3987.174   -4155.6868    1462.2996     1105.419    1466.3483    1815.1315    16.522483    16.522483    82.612415 
    1700    1027.3544   -3986.3649    -4156.211   -1775.5702   -1844.4215    -1849.244   -1633.0451    16.545481    16.545481    82.727407 
    1800    996.87773   -3985.4522   -4150.2598   -2552.0877   -2899.5719   -3145.4506   -1611.2404    16.563083    16.563083    82.815416 
    1900    1033.5042   -3984.4864   -4155.3491   -4640.6052     -4832.45   -3100.4192   -5988.9463    16.572815    16.572815    82.864074 
    2000    1009.8361   -3983.5851   -4150.5349   -3603.6999   -3661.7757   -2600.5038   -4548.8202    16.573137    16.573137    82.865683 
    2100    996.50238   -3982.7491   -4147.4946   -2637.5623   -3058.8738   -2987.0119   -1866.8013    16.565542    16.565542    82.827709 
    2200    1034.3955   -3981.8968    -4152.907    -1436.939   -1755.8665   -526.50481   -2028.4457    16.552906    16.552906     82.76453 
    2300    1032.9831   -3981.0426   -4151.8193    260.16721   -210.61116   -873.97556    1865.0883    16.538587    16.538587    82.692933 
    2400    1023.3716   -3980.1849   -4149.3725    2299.6978    1492.1261    2829.5441    2577.4231    16.525966    16.525966    82.629831 
    2500    1040.8393   -3979.3403   -4151.4158    2745.6771    3320.3817    1299.1177    3617.5319    16.518335    16.518335    82.591674 
    2600     1049.611   -3978.5683   -4152.0939    2932.4457    2314.6259    1892.1761    4590.5352    16.516796    16.516796    82.583982 
    2700     1054.853   -3977.8761   -4152.2684     2255.679    1830.7924    2514.8626     2421.382    16.521287    16.521287    82.606434 
    2800    1041.3825   -3977.2247   -4149.3899    1250.9836    622.44246    564.00197    2566.5063    16.530557    16.530557    82.652785 
    2900    1053.8946   -3976.5469   -4150.7807    361.88268    1687.2537    -153.3657   -448.23999    16.541807    16.541807    82.709037 
    3000    1037.8355   -3975.8459   -4147.4247   -686.34835    -1248.641    491.47678   -1301.8808     16.55285     16.55285    82.764251 
    3100     1031.062    -3975.114    -4145.573   -1260.4002   -1184.0504   -429.84461   -2167.3057    16.561493    16.561493    82.807464 
    3200    1028.5178   -3974.3998   -4144.4382   -1567.6717   -1082.3243   -2459.1192   -1161.5715    16.566215    16.566215    82.831075 
    3300    1039.5437   -3973.6675   -4145.5287   -1803.6275   -3351.7259   -1617.4214   -441.73536    16.566902    16.566902    82.834509 
    3400    1075.3583   -3972.9649   -4150.7471   -2334.8855   -2597.2964   -3995.0638   -412.29641     16.56364     16.56364    82.818199 
    3500    1046.3712   -3972.2526   -4145.2426   -762.23456   -1519.3646   -1603.7833    836.44416     16.55759     16.55759    82.787952 
    3600    1061.3758   -3971.5418   -4147.0124    162.60371    1215.3806   -1029.0375    301.46801    16.550327    16.550327    82.751637 
    3700     1032.454   -3970.8382   -4141.5273    1269.2003    789.75055    963.54456    2054.3058    16.544013    16.544013    82.720063 
    3800      1082.75   -3970.1609   -4149.1652    751.90123     681.9668    1429.3131    144.42378        16.54        16.54    82.700002 
    3900    1106.5526   -3969.5238   -4152.4632    670.26264     235.4635   -143.40573    1918.7302    16.538761    16.538761    82.693807 
    4000    1075.3293   -3968.9412   -4146.7187    1038.1106     374.6864    1505.4878    1234.1576    16.540523    16.540523    82.702617 
    4100    1072.6174    -3968.382   -4145.7111    721.85254    1011.2728    584.86313    569.42168     16.54543     16.54543    82.727151 
    4200    1047.1495   -3967.8127   -4140.9314      657.119    75.900668    1385.0603    510.39603    16.552198    16.552198     82.76099 
    4300    1070.5171   -3967.2602   -4144.2421    -446.7212     411.8499   -2315.7973    563.78378    16.559259    16.559259    82.796294 
    4400    1052.1361   -3966.7016   -4140.6447    -681.5622   -830.74883   -281.49555   -932.44223    16.565243    16.565243    82.826214 
    4500    1038.4672   -3966.1343   -4137.8176   -532.49162    131.32857   -325.86585   -1402.9376    16.568891    16.568891    82.844454 
    4600    1071.6355   -3965.5771   -4142.7439   -1662.3588    -1622.304   -2754.0867    -610.6858     16.56998     16.56998    82.849898 
    4700    1055.0103   -3965.0205   -4139.4387   -809.02586   -1291.1341   -1504.4452    368.50168     16.56834     16.56834    82.841699 
    4800     1034.837   -3964.4764   -4135.5595    225.60976   -948.43539   -316.05264    1941.3173    16.564677    16.564677    82.823383 
    4900    1055.1656    -3963.929   -4138.3729     104.7564   -442.18878   -720.80343    1477.2614    16.560219    16.560219    82.801096 
    5000    1063.7829     -3963.38   -4139.2485    779.92199    1176.5033   -840.85623    2004.1189    16.556015    16.556015    82.780075 
    5100    1091.5069   -3962.8558   -4143.3078    484.59802    1381.1971    -92.87827    165.47522     16.55309     16.55309    82.765451 
    5200    1081.4259    -3962.363   -4141.1483    770.03005    1551.0124    528.72242    230.35528    16.552149    16.552149    82.760745 
    5300     1104.864   -3961.8903   -4144.5505    295.54213     1249.893   -23.913679   -339.35296    16.553298    16.553298    82.766488 
    5400    1084.5198   -3961.4779   -4140.7747    787.59377    1251.2601    1825.9822   -714.46094    16.555893    16.555893    82.779467 
    5500    1065.7282   -3961.0758    -4137.266    822.36154    1699.4527        927.7   -160.06813    16.560243    16.560243    82.801213 
    5600    1066.1152   -3960.6673   -4136.9215    320.61364    816.49947    1360.6614   -1215.3199    16.565681    16.565681    82.828407 
    5700    1090.8766   -3960.2871   -4140.6349   -963.76265   -2152.1132   -362.58503   -376.58976     16.57047     16.57047    82.852348 
    5800    1084.8031   -3959.9023    -4139.246    -1260.587   -551.95909   -1433.2935   -1796.5084    16.573761    16.573761    82.868804 
    5900    1107.8589   -3959.5263   -4142.6816   -1350.6492    -548.2278   -1731.0402   -1772.6797    16.574636    16.574636     82.87318 
    6000    1070.0537   -3959.1674   -4136.0726   -461.69708    322.03086   -520.23851   -1186.8836    16.573222    16.573222    82.866109 
    6100    1045.3266    -3958.824   -4131.6413    631.95239    2136.4764   -1186.0737    945.45439    16.569998    16.569998    82.849989 
    6200    1085.4809   -3958.4659   -4137.9217    173.56386    1027.5595    270.06491   -776.93283    16.566452    16.566452    82.832259 
    6300    1078.0943   -3958.1198   -4136.3544     759.2052    1855.1122   -118.29002    540.79341    16.563137    16.563137    82.815685 
    6400    1090.9595   -3957.8175    -4138.179    885.82368   -272.10368    1497.0145    1432.5602    16.560806    16.560806    82.804031 
    6500    1099.9161   -3957.5378   -4139.3801    575.80398    1765.3757    852.40753   -890.37131    16.560541    16.560541    82.802707 
    6600    1086.3173   -3957.2579   -4136.8519    816.99787    865.75601     1873.101   -287.86342    16.562159    16.562159    82.810794 
    6700    1100.3402   -3957.0257   -4138.9381    121.43908   -42.520187   -82.491717    489.32916     16.56448     16.56448    82.822401 
    6800    1083.4434   -3956.7915   -4135.9104    4.7172971    164.84153   -420.35152    269.66188    16.567334    16.567334    82.836669 
    6900    1085.8841   -3956.5307   -4136.0531    47.611566   -1841.9108    724.25387    1260.4916    16.570398    16.570398    82.851992 
    7000    1054.9316   -3956.3006   -4130.7058    346.29681   -942.30133    433.83417    1547.3576    16.572659    16.572659    82.863295 
    7100    1111.0887   -3956.0472   -4139.7365    -950.8138   -1594.7015   -2287.4188    1029.6789    16.574467    16.574467    82.872334 
    7200    1083.1728    -3955.796   -4134.8701   -352.70804    704.93964   -115.22246   -1647.8413    16.575128    16.575128    82.875641 
    7300    1113.4672   -3955.5444    -4139.627   -1178.7133   -1065.2635    -503.1735   -1967.7029    16.574656    16.574656    82.873281 
    7400    1068.7016   -3955.3326   -4132.0144    387.92076    868.72472   -866.47817    1161.5157    16.572582    16.572582    82.862908 
    7500    1120.7038   -3955.1099   -4140.3888   -576.19443   -536.27831    234.67798    -1426.983    16.570528    16.570528     82.85264 
    7600    1096.8952   -3954.8709   -4136.2137    64.856993   -1087.3837    326.56537    955.38931    16.569174    16.569174     82.84587 
    7700    1094.4939   -3954.6573   -4135.6031    393.57044    144.40964    1218.2332   -181.93147    16.567974    16.567974    82.839871 
    7800    1106.8053   -3954.4825   -4137.4636    105.42033    943.73607    2.9949224      -630.47    16.567025    16.567025    82.835127 
    7900    1083.0328   -3954.3119   -4133.3629    796.93622    1032.7198    1107.4868    250.60201    16.567082    16.567082    82.835409 
    8000    1121.1806   -3954.1453    -4139.503   -214.72555   -176.93352   -1439.9699    972.72671    16.568174    16.568174    82.840868 
    8100      1104.98    -3954.017   -4136.6965   -207.23228   -389.48188    535.23724   -767.45221    16.569529    16.569529    82.847644 
    8200     1077.307   -3953.8567   -4131.9611    384.29298    1601.6905    312.36983   -761.18135    16.571674    16.571674    82.858371 
    8300    1093.2433    -3953.685    -4134.424   -299.71445     -808.756    479.80362   -570.19098    16.573871    16.573871    82.869355 
    8400    1075.8651   -3953.5374   -4131.4034    222.34211   -981.01154   -51.125456    1699.1633    16.575166    16.575166    82.875829 
    8500     1111.172    -3953.374   -4137.0771   -1025.6929   -1128.0194   -816.93365   -1132.1256    16.576108    16.576108    82.880541 
    8600    1089.5763   -3953.2196   -4133.3524   -400.25251    968.16255   -597.05701   -1571.8631    16.575773    16.575773    82.878863 
    8700    1085.4574    -3953.053   -4132.5048     56.61504   -320.09727   -922.76309    1412.7055    16.574985    16.574985    82.874925 
    8800    1107.8617   -3952.8821   -4136.0379   -461.31779   -1452.9942    163.17022   -94.129404    16.574099    16.574099    82.870495 
    8900    1106.7969   -3952.7159   -4135.6957   -122.57229    475.32706    332.57755   -1175.6215    16.573075    16.573075    82.865377 
    9000     1104.713   -3952.5791   -4135.2143    199.35738   -1227.5577    1497.0896    328.54021    16.571955    16.571955    82.859776 
    9100     1101.332   -3952.4863   -4134.5626    94.509666   -323.87107   -168.33753     775.7376    16.570771    16.570771    82.853855 
    9200    1092.6062   -3952.3838   -4133.0175    464.93333   -330.31792    382.13362    1342.9843    16.570302    16.570302    82.851511 
    9300    1086.8069   -3952.2585   -4131.9335     348.1811   -530.62775   -66.394824    1641.5659    16.571036    16.571036     82.85518 
    9400    1077.6227   -3952.1119   -4130.2685    443.74333    1784.4702   -246.00212   -207.23812     16.57254     16.57254      82.8627 
    9500    1096.2531   -3951.9636   -4133.2003   -415.26995    7.3134958   -1764.9644    511.84102    16.574549    16.574549    82.872747 
    9600    1090.8023   -3951.8182   -4132.1537   -156.14754    1265.5877   -1628.8562    -105.1741    16.576159    16.576159    82.880796 
    9700    1087.2809   -3951.7115   -4131.4649   -349.31262   -895.54997   -219.21951    66.831619    16.576689    16.576689    82.883446 
    9800    1088.4481   -3951.6003   -4131.5465    223.95692    -383.3193   -802.12453    1857.3146    16.576517    16.576517    82.882586 
    9900     1122.131   -3951.4971    -4137.012   -748.11602   -1344.3115   -1597.4501    697.41352    16.576097    16.576097    82.880485 
   10000    1100.3994   -3951.4207   -4133.3428    3.1429057    885.85448   -543.49613   -332.92963    16.575206    16.575206    82.876031 
   10100     1078.979   -3951.3525   -4129.7333    333.32358    284.20738    32.143559    683.61979    16.574351    16.574351    82.871753 
   10200    1089.1043   -3951.2926   -4131.3474    727.71893    1484.0474    -74.70751    773.81687    16.573538    16.573538    82.867692 
   10300    1127.6946    -3951.235   -4137.6697   -289.15487    277.58481   -222.76508   -922.28435    16.573506    16.573506    82.867532 
   10400    1096.0532   -3951.1791   -4132.3827    656.46729    605.36983    648.32097    715.71108    16.574111    16.574111    82.870556 
   10500    1116.0377    -3951.132   -4135.6395   -135.00885    406.93854   -1266.0863    454.12122    16.575405    16.575405    82.877027 
   10600    1091.5571    -3951.111   -4131.5713     225.8622   -284.32044    417.18972    544.71732    16.576647    16.576647    82.883237 
   10700    1095.3542   -3951.1255   -4132.2135   -338.52782    99.730213   -1178.9224    63.608732    16.577337    16.577337    82.886687 
   10800    1112.3723   -3951.1319   -4135.0335    -587.2385   -630.34108   -1439.7451    308.37062     16.57757     16.57757     82.88785 
   10900    1091.4592   -3951.1559   -4131.5999   -218.40899   -848.05721   -314.77107    507.60132    16.576839    16.576839    82.884197 
   11000    1098.0236    -3951.192   -4132.7214   -169.16739    87.494004   -59.742018   -535.25415    16.575259    16.575259    82.876293 
   11100    1094.9649   -3951.2039   -4132.2275     199.7772   -469.49666    475.49235    593.33591    16.573703    16.573703    82.868515 
   11200    1116.6923   -3951.2115   -4135.8272    -102.9476    1492.8445     -1831.93     30.24261    16.572235    16.572235    82.861175 
   11300     1093.271   -3951.2604    -4132.004    548.65126   -1230.8761    162.04996    2714.7799    16.570832    16.570832    82.854159 
   11400    1127.0535   -3951.3167   -4137.6454   -122.08654    521.74897   -64.847288   -823.16131    16.570438    16.570438    82.852192 
   11500    1118.8453   -3951.3866   -4136.3583   -33.010185    2464.9402   -1012.6799   -1551.2908    16.570804    16.570804    82.854018 
   11600    1090.5111     -3951.49   -4131.7773    545.74372     11.84476    1138.0036    487.38275    16.571412    16.571412    82.857062 
   11700    1110.0062   -3951.5987    -4135.109   -109.25993    1154.5981    259.66823   -1742.0461    16.572097    16.572097    82.860485 
   11800    1087.8114   -3951.7125   -4131.5536    598.06017    880.72529     624.0512    289.40402    16.572776    16.572776    82.863879 
   11900    1114.4514   -3951.7952   -4136.0404   -571.91258   -118.61176   -99.263125   -1497.8629    16.574066    16.574066    82.870328 
   12000    1121.5826   -3951.8577   -4137.2819   -684.37903    -480.2596   -314.06482   -1258.8127    16.575068    16.575068    82.875339 
   12100     1105.538   -3951.9101   -4134.6818   -452.04918   -1964.7059   -1260.3696     1868.928    16.575832    16.575832    82.879158 
   12200    1113.3216   -3951.9939   -4136.0524   -706.48912    -1152.131   -1283.0023    315.66591    16.575666    16.575666    82.878331 
   12300    1080.2014   -3952.0528   -4130.6357    153.28074    56.398185    820.49994   -417.05591    16.574891    16.574891    82.874456 
   12400    1105.7311   -3952.0876   -4134.8912     63.73393   -1110.2133   -152.42544    1453.8405     16.57385     16.57385    82.869251 
   12500    1095.7598   -3952.1208   -4133.2759    73.099977   -1834.9449   -285.71233    2339.9572     16.57283     16.57283     82.86415 
   12600    1111.5919    -3952.115   -4135.8875   -420.78963    166.31905   -955.11957   -473.56836    16.572456    16.572456    82.862281 
   12700    1105.1058   -3952.1136   -4134.8139   -124.28807   -461.65285    693.51069   -604.72206    16.572011    16.572011    82.860053 
   12800    1074.9413   -3952.1214   -4129.8347    1169.7897    189.03516    1267.0735    2053.2604    16.571566    16.571566    82.857829 
   12900    1112.9337   -3952.0949   -4136.0892   -208.96105    921.68853   -1667.2834     118.7117    16.572176    16.572176    82.860881 
   13000    1122.6509   -3952.0889   -4137.6897   -471.13613   -313.57166   -763.80989   -336.02684    16.572949    16.572949    82.864746 
   13100    1109.9907   -3952.0906   -4135.5984   -106.59362   -385.31051   -295.33531    360.86495    16.573831    16.573831    82.869153 
   13200    1083.3532   -3952.0986   -4131.2026    276.93828   -368.32459    334.50402     864.6354    16.574722    16.574722     82.87361 
   13300    1111.7923   -3952.0976   -4135.9033    -603.2215    1057.4518   -1902.5695   -964.54681    16.575474    16.575474     82.87737 
   13400    1086.3339   -3952.1128   -4131.7096    -2.478952   -604.28993    61.524229    535.32885    16.575477    16.575477    82.877386 
   13500     1127.261   -3952.1103   -4138.4733   -752.44059   -1068.8849   -1082.9881   -105.44879    16.575251    16.575251    82.876253 
   13600    1122.9778   -3952.1176   -4137.7725   -305.52914     719.3638   -1266.5579   -369.39332    16.574473    16.574473    82.872365 
   13700    1089.8767   -3952.1277   -4132.3102    332.78751   -98.724417    1488.3272   -391.24026    16.573769    16.573769    82.868845 
   13800    1091.5348   -3952.1296   -4132.5862    439.65181    1504.4601     420.8978    -606.4025    16.573431    16.573431    82.867156 
   13900    1103.6775   -3952.1549    -4134.619   -74.484444    1153.3994   -1384.9547    8.1020147    16.573152    16.573152    82.865762 
   14000    1108.3975   -3952.1984   -4135.4428   -437.29408   -1146.9442    1601.0957   -1766.0338    16.572811    16.572811    82.864056 
   14100    1113.8684   -3952.2379   -4136.3867   -393.40998    426.44567   -581.18172   -1025.4939    16.572313    16.572313    82.861567 
   14200    1099.5246    -3952.269   -4134.0465    27.189346    489.25633    669.38407   -1077.0724     16.57197     16.57197    82.859849 
   14300    1095.0839   -3952.2944   -4133.3377    557.76712    268.33734    131.58739    1273.3766     16.57187     16.57187    82.859351 
   14400    1110.4563   -3952.3157   -4135.9005   -248.88693    -191.0186    -189.0038    -366.6384     16.57217     16.57217    82.860849 
   14500    1071.6167   -3952.3281   -4129.4917    1055.3323     598.5749    2151.4159    416.00624    16.572834    16.572834    82.864172 
   14600    1088.8489   -3952.3197   -4132.3323    118.73607   -387.95562    363.08732    381.07652    16.574089    16.574089    82.870445 
   14700    1090.5405   -3952.3001   -4132.5923     66.89143   -697.43333    946.66206   -48.554442     16.57519     16.57519    82.875948 
   14800    1084.1989   -3952.2897   -4131.5335    543.37782    1051.5289    785.62302   -207.01845    16.575981    16.575981    82.879904 
   14900    1083.5826   -3952.2758   -4131.4177   -80.523589    706.32556   -2220.8637    1272.9674    16.576853    16.576853    82.884263 
   15000    1086.0202   -3952.2728   -4131.8177    236.12676    200.11814   -520.59408    1028.8562     16.57695     16.57695    82.884748 
   15100    1101.0821   -3952.2697   -4134.3046   -447.96075   -1516.8735   -556.15609    729.14732    16.576606    16.576606    82.883031 
   15200    1093.4981   -3952.2524   -4133.0335   -267.63478    368.45214   -1344.8409     173.4844    16.575665    16.575665    82.878323 
   15300    1084.8122   -3952.2128    -4131.558    272.19876    229.61674    372.77899    214.20057    16.574437    16.574437    82.872183 
   15400    1106.9028   -3952.1661   -4135.1634    93.979319    339.44038   -664.60002    607.09759    16.573321    16.573321    82.866603 
   15500    1078.6958    -3952.135    -4130.469    619.91187   -165.18997    349.06612    1675.8595    16.572255    16.572255    82.861274 
   15600    1066.7121   -3952.1041   -4128.4569    1221.7473    1630.2069    969.14419    1065.8908    16.571499    16.571499    82.857493 
   15700      1105.52   -3952.0652   -4134.8339   -34.126573   -175.58775   -289.09386    362.30189    16.571588    16.571588    82.857942 
   15800    1112.3895   -3952.0375   -4135.9418    105.44367    934.40633   -1971.4296    1353.3543    16.572165    16.572165    82.860823 
   15900    1113.9517   -3952.0205   -4136.1831   -469.77575   -178.15283   -1565.1593    333.98484    16.573262    16.573262    82.866308 
   16000    1105.0528     -3952.03   -4134.7215   -10.341117   -1533.1106    158.92049    1343.1667    16.574044    16.574044     82.87022 
   16100    1070.9363   -3952.0595   -4129.1106    789.47565   -216.90977    1445.0794    1140.2574    16.574503    16.574503    82.872517 
   16200    1116.6217   -3952.0819    -4136.686   -941.95556   -1034.8834   -496.43898   -1294.5443     16.57508     16.57508      82.8754 
   16300    1111.7295     -3952.09   -4135.8853   -878.63552    -1067.684   -417.41256     -1150.81    16.575178    16.575178     82.87589 
   16400    1071.4734   -3952.0971   -4129.2371    808.77395    559.65421    -1591.386    3458.0536    16.574609    16.574609    82.873046 
   16500    1117.9907   -3952.0845   -4136.9149   -441.05387   -1456.2537    485.02964   -351.93755    16.574231    16.574231    82.871155 
   16600    1099.5063   -3952.1029   -4133.8773   -57.737233    908.21568   -205.62458    -875.8028    16.573382    16.573382     82.86691 
   16700    1098.8299   -3952.1191   -4133.7817    256.58142   -106.57787   -293.24545    1169.5676    16.572592    16.572592    82.862961 
   16800    1107.5928   -3952.1251   -4135.2365    109.91076   -1.9875373   -122.56996    454.28977    16.572544    16.572544    82.862719 
   16900    1124.0931   -3952.1117    -4137.951   -538.52302   -601.00729   -894.31268   -120.24909    16.573533    16.573533    82.867667 
   17000    1092.0183   -3952.1099   -4132.6465    49.075591    189.07203   -1476.2748    1434.4295    16.574742    16.574742    82.873712 
   17100     1122.945   -3952.0923   -4137.7418   -818.92711      691.912   -2798.9073   -349.78603    16.576379    16.576379    82.881894 
   17200    1126.9759   -3952.0848   -4138.4006   -1070.0399   -2222.2319    -197.7161   -790.17174    16.577581    16.577581    82.887905 
   17300    1078.3336   -3952.1006   -4130.3748    133.60673    375.32661   -1383.0556    1408.5492    16.577672    16.577672     82.88836 
   17400    1102.4526    -3952.076   -4134.3375   -562.24529    340.07702   -2021.7359   -5.0769978    16.577618    16.577618    82.888092 
   17500    1074.4982    -3952.033    -4129.673    341.28306   -1432.9976    1619.2549     837.5919    16.576929    16.576929    82.884646 
   17600    1125.1038   -3951.9919   -4137.9982   -1061.5619   -2656.8673    250.84428   -778.66271    16.575542    16.575542    82.877712 
   17700    1106.1836   -3951.9718   -4134.8502    59.264379    1269.4793    -769.5339   -322.15223    16.573228    16.573228    82.866142 
   17800    1105.3571   -3951.9668   -4134.7086    276.07886    1442.4347    527.09204   -1141.2901    16.571055    16.571055    82.855276 
   17900    1088.3771   -3951.9776   -4131.9122    1331.5828     1433.349    1652.1955    909.20393    16.569677    16.569677    82.848385 
   18000    1099.5655    -3951.997   -4133.7813    725.85003   -745.75753     1565.086    1358.2216    16.569857    16.569857    82.849284 
   18100    1113.1377   -3952.0273   -4136.0554     69.26014    752.66705    352.88091   -897.76754    16.571258    16.571258    82.856291 
   18200    1103.5121   -3952.0855   -4134.5222    329.37848    -1806.206    1573.2111    1221.1303    16.573161    16.573161    82.865806 
   18300    1095.3656   -3952.1621    -4133.252    331.27885    197.24883    425.26674    371.32097    16.575187    16.575187    82.875936 
   18400    1107.4686   -3952.2341    -4135.325   -529.80788    -250.0014   -146.27425    -1193.148    16.577182    16.577182    82.885909 
   18500    1092.8717   -3952.3002   -4132.9778   -319.33022   -1290.7173   -1332.0774     1664.804    16.578275    16.578275    82.891374 
   18600    1086.3683   -3952.3702   -4131.9727   -231.50122    833.77532   -982.58025   -545.69874    16.578219    16.578219    82.891097 
   18700    1092.7457   -3952.4372    -4133.094   -338.21111   -308.70613    503.13845   -1209.0656      16.5774      16.5774       82.887 
   18800    1101.5613   -3952.4827   -4134.5969    146.91912    1003.8446    649.75496   -1212.8422    16.576201    16.576201    82.881007 
   18900    1078.0154   -3952.5598   -4130.7813     440.0046   -238.83302    295.66835    1263.1785    16.574331    16.574331    82.871656 
   19000    1122.0285   -3952.6213   -4138.1192   -536.92521   -2239.3701    1902.6341   -1274.0397    16.572707    16.572707    82.863534 
   19100    1111.9545   -3952.6619   -4136.4944   -26.956501    -529.0819   -94.625877    542.83828    16.571578    16.571578    82.857888 
   19200    1098.1339   -3952.7144    -4134.262    762.59362   -1104.4529    1441.3227    1950.9111    16.571014    16.571014     82.85507 
   19300     1098.597   -3952.7497   -4134.3739    44.865438   -981.98167    998.90252    117.67547    16.571872    16.571872    82.859358 
   19400    1109.4461   -3952.7734   -4136.1911   -272.91084   -1641.0536    178.14018     644.1809    16.572918    16.572918    82.864588 
   19500    1110.8451   -3952.8058   -4136.4548   -196.30663     626.5753   -581.72559   -633.76959    16.573653    16.573653    82.868265 
   19600    1109.0481   -3952.8255   -4136.1775   -349.98594   -411.68952   -701.69124    63.422926    16.574325    16.574325    82.871626 
   19700    1113.6819    -3952.819    -4136.937   -508.76495   -1622.9038   -169.56276    266.17168    16.575106    16.575106    82.875531 
   19800    1091.7013   -3952.8023   -4133.2864   -154.99144    580.08234   -1448.4982     403.4416    16.575464    16.575464    82.877318 
   19900    1088.9785   -3952.7729   -4132.8069   -208.94896   -719.08603    199.31151   -107.07237    16.575507    16.575507    82.877537 
   20000    1089.2978   -3952.7695   -4132.8563    57.763075    576.36498   -1004.2996    601.22385    16.574661    16.574661    82.873307 
   20100    1087.9522   -3952.7421   -4132.6065    26.303626    791.38617    85.910918   -798.38621    16.573741    16.573741    82.868705 
   20200    1088.7976   -3952.6915   -4132.6956    381.61449    1932.8711   -965.71886    177.69123    16.572852    16.572852     82.86426 
   20300    1084.3658   -3952.6284   -4131.8998    456.93583    1068.0102    596.53524   -293.73791    16.572358    16.572358    82.861791 
   20400     1098.548   -3952.5752   -4134.1912     211.9658   -907.25243    232.03869    1311.1111     16.57206     16.57206    82.860302 
   20500    1107.3404   -3952.5142   -4135.5838   -61.173654     536.1268   -553.92408   -165.72369     16.57229     16.57229    82.861449 
   20600     1106.917   -3952.4514   -4135.4511     86.14555    546.89417   -375.13982    86.682299     16.57315     16.57315    82.865751 
   20700    1071.3513   -3952.4098   -4129.5296    778.94199    -1417.308    697.51856    3056.6154     16.57405     16.57405    82.870249 
   20800    1080.9396   -3952.3486   -4131.0536    390.40641    54.755777   -1139.7086     2256.172    16.575247    16.575247    82.876236 
   20900    1108.4761   -3952.2486    -4135.506   -613.97128   -1814.5812   -304.87948     277.5468    16.576468    16.576468    82.882338 
   21000    1102.4264   -3952.1829   -4134.4401   -466.62905   -684.10254   -765.99913    50.214517    16.576468    16.576468     82.88234 
   21100    1108.6368   -3952.1315   -4135.4154   -182.96756   -226.20355   -751.05767    428.35853    16.575713    16.575713    82.878566 
   21200    1101.0785   -3952.0989   -4134.1333    91.872126    2238.0197   -1593.1314   -369.27194    16.574745    16.574745    82.873725 
   21300    1097.3947   -3952.0662   -4133.4916    237.05616   -338.83503    553.79353    496.20998    16.573921    16.573921    82.869607 
   21400    1069.0767   -3952.0251   -4128.7689    617.13436   -1093.9153    1709.6813    1235.6371    16.573426    16.573426    82.867132 
   21500    1113.6273    -3951.966   -4136.0751   -396.19459   -1327.8565     348.6823   -209.40958    16.573389    16.573389    82.866947 
   21600    1109.5966   -3951.9397   -4135.3823   -139.58226   -552.08767    1114.4696   -981.12872    16.572902    16.572902     82.86451 
   21700    1109.9168   -3951.9279   -4135.4235    63.235142     55.18557   -295.56684     430.0867    16.572469    16.572469    82.862347 
   21800    1109.5104   -3951.9057   -4135.3341   -67.714511   -560.12841    610.84361   -253.85873    16.572674    16.572674    82.863372 
   21900    1109.0866   -3951.9002   -4135.2586   -364.31536    95.687948   -77.104683   -1111.5294    16.572915    16.572915    82.864577 
   22000    1071.1764   -3951.8889   -4128.9798    923.39154    1494.7145     332.0028    943.45735    16.573149    16.573149    82.865744 
   22100    1118.4622   -3951.8969   -4136.8052   -283.28007   -917.08389      81.3725   -14.128817    16.573324    16.573324    82.866619 
   22200    1091.6238   -3951.9423   -4132.4136    76.783454    929.71629   -483.31908   -216.04684    16.573208    16.573208    82.866042 
   22300    1107.2895   -3951.9643   -4135.0255   -175.60245    444.81325     -263.864   -707.75659    16.573576    16.573576     82.86788 
   22400    1109.5851   -3951.9997   -4135.4405   -213.50871    567.30886   -1323.0089    115.17394    16.573757    16.573757    82.868786 
   22500    1098.8184   -3952.0448   -4133.7055   -40.125879     568.8083   -705.53026    16.344316    16.573816    16.573816     82.86908 
   22600    1093.2583   -3952.0755    -4132.817   -132.97047    982.69837   -1187.5611   -194.04868    16.573897    16.573897    82.869487 
   22700    1086.0134   -3952.0859   -4131.6297    297.97497    2212.9183    -19.18387   -1299.8095    16.573892    16.573892    82.869458 
   22800    1099.1657   -3952.0936   -4133.8118    177.00381   -162.14543   -821.04324    1514.2001    16.573957    16.573957    82.869786 
   22900    1114.7925   -3952.0925   -4136.3941   -309.13478   -632.24558    18.021431   -313.18018    16.574236    16.574236    82.871178 
   23000    1089.0621   -3952.0917   -4132.1395    58.293705   -146.41427    908.95468    -587.6593    16.574417    16.574417    82.872086 
   23100    1102.7363   -3952.0621   -4134.3706     73.67896   -962.10486   -1211.8815    2395.0232    16.574754    16.574754    82.873771 
   23200    1106.6585   -3952.0341    -4134.991   -371.50648     459.3173   -1351.2453   -222.59141     16.57486     16.57486    82.874299 
   23300     1113.068   -3952.0301   -4136.0467   -289.03316   -319.74248   -1929.3827    1382.0258    16.574055    16.574055    82.870276 
   23400    1080.1444   -3952.0415   -4130.6149    509.06178    286.77959    60.067421    1180.3383    16.573003    16.573003    82.865013 
   23500    1084.1663   -3952.0359   -4131.2743    488.48128    1418.8158   -549.10322    595.73125    16.572323    16.572323    82.861615 
   23600    1132.5727   -3952.0407   -4139.2819   -777.12395    -765.6946   -1071.2308   -494.44645     16.57189     16.57189    82.859448 
   23700    1108.4616   -3952.0724   -4135.3274    164.21587    75.322072   -83.979664    501.30521    16.571341    16.571341    82.856707 
   23800    1105.9043   -3952.1158    -4134.948    62.472889   -955.81242   -533.03831    1676.2694    16.571136    16.571136    82.855678 
   23900    1111.0649   -3952.1522   -4135.8376   -3.3720977    1143.3411   -1114.8275   -38.629917    16.571377    16.571377    82.856887 
   24000     1116.865   -3952.1875   -4136.8318   -155.73235   -362.44714     -91.5653   -13.184623    16.572252    16.572252    82.861259 
   24100    1105.1743   -3952.2139   -4134.9254   -16.932321   -593.51801    1125.8133   -583.09223    16.573681    16.573681    82.868406 
   24200     1052.951   -3952.2666   -4126.3443    911.31714    2057.4667   -440.82785    1117.3125    16.574756    16.574756    82.873782 
   24300    1086.3288   -3952.2952   -4131.8912    72.043718   -733.54129    1791.6346   -841.96217    16.575862    16.575862     82.87931 
   24400    1070.6695    -3952.293      -4129.3    224.75996    750.54716    74.421423   -150.68869    16.576672    16.576672     82.88336 
   24500    1115.8526   -3952.2749   -4136.7519   -987.20514   -1449.1664   -553.86605   -958.58295    16.576869    16.576869    82.884346 
   24600    1096.1693   -3952.2536   -4133.4764   -319.03371    969.32115   -780.57269   -1145.8496    16.575971    16.575971    82.879856 
   24700    1106.0827   -3952.2358   -4135.0975   -526.37938   -27.152204   -552.25321   -999.73274    16.574463    16.574463    82.872314 
   24800    1118.0229   -3952.2007   -4137.0364   -306.22867   -1197.4906    1002.8451   -724.04056    16.572809    16.572809    82.864047 
   24900    1099.0751   -3952.1737   -4133.8769    221.76507   -503.40111    1214.7505   -46.054147    16.571262    16.571262    82.856308 
   25000    1100.9578   -3952.1295   -4134.1439    203.50415   -1385.5532    256.28634    1739.7793    16.570456    16.570456    82.852278 
   25100    1118.5899   -3952.1205   -4137.0499    -204.1581   -834.47835   -688.96038    910.96445    16.569973    16.569973    82.849863 
   25200    1101.9313   -3952.1301   -4134.3055    662.17843   -567.84617    942.57011    1611.8113    16.570013    16.570013    82.850067 
   25300    1100.5992   -3952.1305   -4134.0857    393.00341   -844.02949    2447.4183   -424.37861    16.571314    16.571314     82.85657 
   25400    1082.6191   -3952.1379   -4131.1205    549.07677    -367.4196    80.410985    1934.2389    16.573441    16.573441    82.867206 
   25500    1088.7969   -3952.1494   -4132.1534    168.43293    762.32255    1155.9102   -1412.9339    16.575616    16.575616    82.878082 
   25600    1117.1486    -3952.156   -4136.8472   -913.00476   -279.22489   -4057.5737    1597.7843    16.577352    16.577352     82.88676 
   25700    1114.1539   -3952.1568   -4136.3529   -618.54808     267.5537   -192.14962   -1931.0483    16.578335    16.578335    82.891675 
   25800    1055.6845    -3952.169   -4126.6986     521.8823     1208.445   -513.57139    870.77329    16.578249    16.578249    82.891246 
   25900    1082.8208   -3952.1554   -4131.1714   -142.07444   -687.45036    402.36161   -141.13457    16.577433    16.577433    82.887164 
   26000    1070.4209    -3952.099    -4129.065    304.69532    361.94368    725.55493   -173.41266     16.57607     16.57607    82.880349 
   26100    1110.4103    -3952.016   -4135.5932   -669.96848     140.9339   -1414.4066   -736.43271    16.574392    16.574392    82.871958 
   26200    1069.1465   -3951.9166   -4128.6719    580.18825    1356.1862    951.60152   -567.22301    16.572736    16.572736    82.863679 
   26300     1096.176   -3951.8244   -4133.0483    350.47029   -1333.1743    1141.7925    1242.7928    16.571064    16.571064     82.85532 
   26400    1067.9814    -3951.746   -4128.3086     1211.476    1464.4763    937.27165      1232.68    16.569813    16.569813    82.849064 
   26500    1110.6419   -3951.6823   -4135.2978    422.28838   -31.998189    806.31778    492.54555    16.569567    16.569567    82.847836 
   26600    1077.2634   -3951.6636   -4129.7608    812.95688    10.705679    1102.8041    1325.3608    16.569969    16.569969    82.849844 
   26700    1101.3639   -3951.6405   -4133.7221    501.86758   -315.14646    832.24213    988.50708    16.571195    16.571195    82.855977 
   26800    1094.4138    -3951.627   -4132.5596    363.72002    814.32346    2174.8724   -1898.0358    16.572912    16.572912    82.864562 
   26900    1078.0203   -3951.5991   -4129.8214    515.26981   -308.51061    2439.9956   -585.67557    16.574907    16.574907    82.874535 
   27000    1098.8981   -3951.5971    -4133.271   -207.09756    -1318.856   -340.64292    1038.2062    16.576449    16.576449    82.882245 
   27100    1127.5696    -3951.611   -4138.0251    -1094.916   -1914.2943   -1161.1733   -209.28044    16.577511    16.577511    82.887554 
   27200    1084.1219   -3951.6483   -4130.8794    86.495743    1111.8236   -121.64492   -730.69143    16.577378    16.577378    82.886892 
   27300    1112.7699   -3951.6889   -4135.6561   -759.12098   -912.10072   -1219.8993    -145.3629    16.576555    16.576555    82.882776 
   27400    1104.8251   -3951.7544   -4134.4082      -95.598    268.19524    465.15914   -1020.1484    16.574475    16.574475    82.872373 
   27500    1081.7681   -3951.7969   -4130.6388    657.15765    747.06229    536.89074    687.51992     16.57264     16.57264      82.8632 
   27600    1100.9464   -3951.8325   -4133.8451    466.86478    1746.6074   -382.25147    36.238441    16.571509    16.571509    82.857545 
   27700    1110.2014   -3951.8755   -4135.4182    55.403874    419.40435    164.07691   -417.26965    16.571179    16.571179    82.855893 
   27800    1126.5274   -3951.8933   -4138.1351   -347.04533   -750.00968   -849.45103    558.32473    16.571703    16.571703    82.858516 
   27900    1093.6657   -3951.9512     -4132.76    237.96118    304.32455    854.18861   -444.62961    16.571884    16.571884    82.859419 
   28000     1088.905   -3951.9701   -4131.9919     662.7178   -228.89295     1998.941    218.10535    16.572763    16.572763    82.863814 
   28100    1130.1953   -3951.9804   -4138.8285   -597.75174    274.25587   -1520.7073   -546.80384    16.574172    16.574172    82.870862 
   28200    1097.3401   -3951.9894   -4133.4058   -15.545927   -1028.4133    2076.7211   -1094.9456    16.575751    16.575751    82.878756 
   28300     1084.833    -3952.012   -4131.3606    2.7264741   -1933.0289    463.29073    1477.9176    16.576889    16.576889    82.884445 
   28400    1120.6855   -3952.0376   -4137.3135   -1007.4891    -1379.066    30.365303   -1673.7667    16.577028    16.577028    82.885139 
   28500    1113.2727   -3952.0742   -4136.1246   -565.75591   -1291.0212    -1067.744    661.49747    16.575993    16.575993    82.879965 
   28600    1085.1981   -3952.1438   -4131.5528   -14.401488   -1856.3388    681.11176    1132.0226    16.573918    16.573918    82.869592 
   28700    1083.6545   -3952.1866   -4131.3404     104.9545   -472.14356     437.7889    349.21816    16.571769    16.571769    82.858846 
   28800    1103.4383   -3952.1996   -4134.6242    410.95142   -395.59363    560.99025    1067.4576    16.570359    16.570359    82.851794 
   28900    1108.7846   -3952.2177   -4135.5261   -58.801082   -83.917896   -164.96512    72.479772    16.569716    16.569716     82.84858 
   29000    1090.8226   -3952.2362    -4132.575    301.25099   -237.67182    457.84394    683.58086    16.569691    16.569691    82.848456 
   29100    1104.5311   -3952.2222   -4134.8274    20.369622   -591.37111   -189.15007    841.63005    16.570659    16.570659    82.853296 
   29200    1109.0579   -3952.2203   -4135.5739     5.643158    1093.0673   -296.24912   -779.88866    16.572173    16.572173    82.860863 
   29300    1086.2547   -3952.2317   -4131.8154     464.3513    963.33542   -188.27347    617.99193    16.573922    16.573922    82.869608 
   29400    1091.1541   -3952.2374   -4132.6311    44.492947   -148.73917   -33.254192     315.4722    16.575928    16.575928    82.879639 
   29500     1115.399   -3952.2336   -4136.6355   -353.13369   -47.174104   -605.19903   -407.02794    16.577699    16.577699    82.888497 
   29600    1110.9929   -3952.2589   -4135.9323   -959.25324    70.048094   -3312.3318      364.524    16.578553    16.578553    82.892763 
   29700    1097.1502   -3952.2762   -4133.6611   -451.93433   -1533.7152   -458.82361    636.73579    16.578351    16.578351    82.891756 
   29800    1113.4462   -3952.2941   -4136.3732   -708.00824   -1154.5707   -3000.1989    2030.7449    16.577148    16.577148    82.885741 
   29900    1085.4348   -3952.3054   -4131.7535    295.54287   -466.71751   -636.42137    1989.7675    16.575325    16.575325    82.876627 
   30000    1101.4096   -3952.2935   -4134.3827    206.54274    733.59028    164.96603   -278.92808     16.57364     16.57364    82.868198 
   30100    1106.6667   -3952.2983   -4135.2566   -79.048267    826.40771   -2148.6239    1085.0714    16.572031    16.572031    82.860157 
   30200    1110.5918   -3952.3229     -4135.93    271.71202    7.5898219    139.89143    667.65481    16.570706    16.570706     82.85353 
   30300    1117.2642   -3952.3649   -4137.0752     238.2433   -1067.4372    1097.4568    684.71025    16.569849    16.569849    82.849247 
   30400    1066.1615   -3952.4292    -4128.691    1523.9158    1244.5001    511.89044    2815.3567    16.569702    16.569702    82.848511 
   30500    1105.3431   -3952.4748   -4135.2143    292.19229    833.05771    -466.8821    510.40127    16.571121    16.571121    82.855607 
   30600     1106.309   -3952.5355   -4135.4346    151.46757   -845.22019    587.31109    712.31181     16.57303     16.57303    82.865149 
   30700    1104.8706   -3952.6184   -4135.2797   -377.88252   -763.70508   -350.06893   -19.873549    16.574788    16.574788     82.87394 
   30800    1068.1067   -3952.7031   -4129.2865     366.5371    607.30635   -821.08507      1313.39    16.576248    16.576248    82.881239 
   30900    1120.7771   -3952.7356   -4138.0267   -1134.5624   -1028.6407   -2357.0478   -17.998715    16.577718    16.577718    82.888589 
   31000    1120.7516   -3952.7676   -4138.0544   -1017.2198   -143.48197   -780.36301   -2127.8143    16.577703    16.577703    82.888513 
   31100    1070.4225   -3952.8201   -4129.7863    546.10396   -313.18964    1524.3159    427.18563    16.576158    16.576158    82.880791 
   31200    1113.7593   -3952.8672   -4136.9981   -251.73236   -2143.5978    1453.1062    -64.70546     16.57411     16.57411    82.870548 
   31300    1125.0832   -3952.9006   -4138.9036   -421.88155    141.03207   -433.12767   -973.54904    16.572113    16.572113    82.860566 
   31400    1118.3496   -3952.9546   -4137.8443   -93.465968   -928.02064   -1056.2276    1703.8503    16.570035    16.570035    82.850174 
   31500     1113.502   -3953.0085   -4137.0968    67.233894    629.72878   -594.63059     166.6035    16.568548    16.568548    82.842741 
   31600    1099.6446   -3953.0624   -4134.8597    300.07544    608.81691   -1352.9846    1644.3941    16.568094    16.568094    82.840468 
   31700    1106.6782   -3953.0993   -4136.0594     182.1724    188.75648    1081.2222   -723.46152    16.568853    16.568853    82.844264 
   31800    1076.2031   -3953.1205   -4131.0425    1001.7037    1002.5404    473.86745    1528.7032    16.570706    16.570706    82.853531 
   31900    1096.9406   -3953.1176   -4134.4679    146.15664   -1085.1217    1623.1064   -99.514718    16.573435    16.573435    82.867174 
   32000    1106.5704   -3953.0831   -4136.0255   -649.93916   -354.13175    490.36789   -2086.0536    16.576397    16.576397    82.881984 
   32100    1110.5415   -3953.0582    -4136.657   -889.12071   -1686.7499   -156.91264   -823.69955    16.578158    16.578158    82.890791 
   32200    1092.5915   -3953.0025   -4133.6338   -441.87043    392.40411    688.12226   -2406.1377    16.579274    16.579274    82.896372 
   32300    1113.9723    -3952.948    -4137.114   -1269.0478   -194.01036   -2629.3708   -983.76223    16.579291    16.579291    82.896457 
   32400    1075.4944   -3952.8981   -4130.7028    98.017259   -2245.6152    38.663839    2501.0031      16.5778      16.5778    82.888999 
   32500    1112.7258   -3952.8221   -4136.7821   -749.02975   -1347.6065   -412.53805   -486.94466    16.575897    16.575897    82.879483 
   32600    1127.4702   -3952.7482   -4139.1457   -883.41444    218.21812    -451.1081   -2417.3533    16.573291    16.573291    82.866455 
   32700    1077.9164   -3952.6973   -4130.9024    882.67914    1534.9361   -1187.6953    2300.7966    16.570209    16.570209    82.851043 
   32800    1111.3235   -3952.6189   -4136.3471    446.94018    1109.6173    196.28822     34.91502    16.568774    16.568774    82.843868 
   32900    1080.4117   -3952.5603    -4131.178    908.47447    542.70196   -908.88886    3091.6103    16.568521    16.568521    82.842607 
   33000    1094.7281   -3952.5163   -4133.5008    817.29391    1720.0513    182.34465    549.48579    16.569129    16.569129    82.845645 
   33100    1092.8239   -3952.4766   -4133.1463    170.98399     1047.567    119.68315   -654.29816     16.57097     16.57097     82.85485 
   33200    1089.4357   -3952.4145    -4132.524    129.44184    151.52357    417.26266   -180.46071    16.573614    16.573614    82.868068 
   33300    1110.6322   -3952.3765   -4135.9903   -614.34037    399.44932   -1642.0331   -600.43733    16.575747    16.575747    82.878733 
   33400    1102.9385   -3952.3612   -4134.7031   -466.92907   -309.43874    575.61034   -1666.9588    16.576806    16.576806    82.884029 
   33500    1096.4547   -3952.3628   -4133.6328   -543.76044    566.25836   -1276.8591   -920.68056    16.577009    16.577009    82.885043 
   33600     1090.703   -3952.3378   -4132.6569   -111.98142   -1836.2103    1165.3954     334.8707    16.576831    16.576831    82.884154 
   33700    1094.1003   -3952.3107   -4133.1915   -75.390336   -388.38505    883.03092   -720.81687    16.576195    16.576195    82.880975 
   33800    1133.5169     -3952.29   -4139.6872   -1084.7038    474.62253   -1524.0509   -2204.6831    16.575223    16.575223    82.876114 
   33900    1076.3224   -3952.3217   -4130.2634    566.54686    1800.1824    389.71299   -490.25483    16.573143    16.573143    82.865713 
   34000    1090.0304   -3952.3491    -4132.557     263.7227    392.77926   -580.71442    979.10327    16.571373    16.571373    82.856867 
   34100    1098.7057   -3952.3849    -4134.027    513.42678    1377.7374    1431.5984   -1269.0555    16.570145    16.570145    82.850727 
   34200    1081.3521   -3952.4176   -4131.1908    1121.4681    1510.3829     738.8353     1115.186    16.569937    16.569937    82.849683 
   34300    1104.1086   -3952.4518   -4134.9871    251.47222    543.86854   -869.88287     1080.431    16.570881    16.570881    82.854403 
   34400    1088.6006   -3952.4891   -4132.4606    351.48517     924.4854   -561.52562    691.49574    16.572297    16.572297    82.861484 
   34500    1103.7283   -3952.4935    -4134.966   -154.51255    282.19272   -299.06811   -446.66226    16.574321    16.574321    82.871607 
   34600      1088.09   -3952.4986   -4132.3857   -429.51005   -1553.1459   -953.08501    1217.7008    16.576165    16.576165    82.880825 
   34700    1123.5349   -3952.5117   -4138.2586   -1216.5135   -1835.3872   -1312.3404   -501.81303    16.576731    16.576731    82.883654 
   34800    1097.0283   -3952.5161   -4133.8809   -349.42846   -1754.5959    -588.2529    1294.5635    16.576256    16.576256    82.881279 
   34900    1115.6579   -3952.4822   -4136.9269   -597.36755   -953.28223   -915.54652    76.726113    16.575698    16.575698    82.878492 
   35000    1083.3786   -3952.4699   -4131.5781   -105.56937   -959.54809    433.23053    209.60946    16.574416    16.574416    82.872081 
   35100    1103.7388   -3952.4648    -4134.939    197.53255    482.87142   -769.18003    878.90624    16.572591    16.572591    82.862956 
   35200    1107.0861   -3952.4715   -4135.4991    411.93783   -673.10351    2474.7592   -565.84216    16.570995    16.570995    82.854975 
   35300    1103.5107    -3952.454   -4134.8905    152.35629   -911.62723   -17.181216    1385.8773    16.570613    16.570613    82.853064 
   35400    1093.6279   -3952.4259   -4133.2286    386.98059    644.42225    621.59846   -105.07893    16.571053    16.571053    82.855263 
   35500    1112.6076   -3952.3995   -4136.3399   -208.72139   -691.51314    162.45415   -97.105188    16.571915    16.571915    82.859576 
   35600    1100.2542   -3952.4029   -4134.3011   -47.706414   -895.93371    274.26015    478.55431    16.572629    16.572629    82.863143 
   35700    1082.5161   -3952.3932   -4131.3588     427.5251    -411.8698    949.28479    745.16032    16.573606    16.573606    82.868028 
   35800    1098.7102   -3952.3677   -4134.0106   -303.04483   -166.61725   -627.49679   -115.02046     16.57487     16.57487    82.874348 
   35900     1131.416   -3952.3326   -4139.3825   -1083.6923   -1132.3522   -2641.3561     522.6314    16.575755    16.575755    82.878774 
   36000    1104.0065   -3952.3528   -4134.8713   -314.90833    1116.7408   -1346.1267   -715.33917    16.575146    16.575146    82.875729 
   36100     1110.141   -3952.3621   -4135.8948   -191.58156   -157.63439    857.79604   -1274.9063    16.574197    16.574197    82.870985 
   36200    1077.0495   -3952.3817   -4130.4435    998.55543    883.01622    105.63303     2007.017    16.573002    16.573002     82.86501 
   36300    1105.4648   -3952.3797   -4135.1392   -20.721891     263.1107    -411.6901    86.413722    16.572445    16.572445    82.862226 
   36400    1118.6879    -3952.383   -4137.3286   -438.43097   -1158.2726   -186.24575    29.225423    16.572072    16.572072     82.86036 
   36500     1119.267   -3952.3992   -4137.4406   -238.06156    795.27034    404.09089   -1913.5459    16.571694    16.571694    82.858471 
   36600    1104.9934   -3952.4156   -4135.0972    26.464824    2248.1113   -1730.7773   -437.93949    16.571336    16.571336     82.85668 
   36700    1102.5988   -3952.4007   -4134.6865    100.47062    -256.5106    767.05189   -209.12942    16.571594    16.571594    82.857971 
   36800    1085.7453   -3952.4109   -4131.9104    399.42298   -241.14723    658.19997    781.21621    16.571955    16.571955    82.859777 
   36900    1094.5473   -3952.4011   -4133.3557    262.61827    692.61009   -68.927467     164.1722    16.572718    16.572718    82.863592 
   37000    1055.6842   -3952.3658   -4126.8955    862.29866     1205.427    666.53758    714.93142     16.57381     16.57381    82.869051 
   37100    1108.6536   -3952.2977   -4135.5845    -302.5866   -1113.7479    389.45116    -183.4631    16.575091    16.575091    82.875454 
   37200    1096.7646   -3952.2529   -4133.5741    281.51607    1007.6545   -378.42814    215.32187    16.575745    16.575745    82.878727 
   37300    1090.3684   -3952.2314   -4132.4951   -71.022463   -123.83346    428.28312   -517.51705    16.576094    16.576094    82.880471 
   37400    1120.7707   -3952.2077   -4137.4976   -868.68204   -1092.2923   -2048.2153     534.4615    16.575874    16.575874    82.879369 
   37500    1089.8109   -3952.1981   -4132.3698    227.44741      332.803    1181.4344   -831.89517    16.574786    16.574786    82.873932 
   37600    1106.5478   -3952.1979   -4135.1365    -135.3231   -523.10796   -528.58839    645.72704    16.573456    16.573456    82.867279 
   37700    1110.7961   -3952.1934   -4135.8343    130.67624    490.61375    492.63947    -591.2245    16.572544    16.572544    82.862718 
   37800     1105.992   -3952.2237   -4135.0704   -76.075346    1513.0642   -952.75803   -788.53217    16.571716    16.571716    82.858578 
   37900    1100.2967   -3952.2503   -4134.1555    268.99185    812.41113   -496.58613    491.15054    16.571369    16.571369    82.856844 
   38000    1099.6342   -3952.2964    -4134.092    234.31212   -601.39614   -406.83161    1711.1641    16.571457    16.571457    82.857286 
   38100    1047.4682   -3952.3665   -4125.5378      1401.88    914.49694    1132.2603    2158.8827    16.571599    16.571599    82.857997 
   38200    1102.1498   -3952.3954   -4134.6069   -267.40158    412.98047   -2239.3693    1024.1841    16.572635    16.572635    82.863175 
   38300    1083.1473   -3952.4311    -4131.501    492.98869     1534.623   -327.92584    272.26896    16.573487    16.573487    82.867435 
   38400     1091.386   -3952.4603   -4132.8923   -255.61197   -1716.6893    990.31508   -40.461675    16.574487    16.574487    82.872434 
   38500    1076.8951   -3952.4798   -4130.5162    74.729366    3.2631224   -492.21915    713.14412    16.575357    16.575357    82.876786 
   38600    1118.9917   -3952.4806   -4137.4764   -796.63202   -1504.4483    390.49699   -1275.9447    16.575923    16.575923    82.879613 
   38700     1123.711   -3952.4562   -4138.2323    -811.8689   -889.45178   -556.18901   -989.96592    16.576351    16.576351    82.881754 
   38800    1096.5856   -3952.4581   -4133.7497    27.267586   -20.704921    402.27892   -299.77124    16.575934    16.575934    82.879672 
   38900    1117.0219   -3952.4743   -4137.1446   -604.85992   -681.92558   -192.93215   -939.72204    16.574937    16.574937    82.874685 
   39000     1094.086   -3952.5114   -4133.3898    139.02889   -33.807302   -1232.7426    1683.6366     16.57334     16.57334    82.866701 
   39100    1099.0683   -3952.5617   -4134.2638     329.0847    -649.9015    806.86618    830.28941    16.571686    16.571686     82.85843 
   39200    1085.6936   -3952.6111    -4132.102    862.86704    65.741471    594.69438    1928.1653    16.570613    16.570613    82.853064 
   39300    1120.7077   -3952.6693   -4137.9489   -245.04597   -1124.9449   -41.158104    430.96514    16.570296    16.570296    82.851482 
   39400    1089.8196   -3952.7381   -4132.9111    668.03783    1040.3258   -870.75583    1834.5435    16.570309    16.570309    82.851544 
   39500     1125.589   -3952.7679   -4138.8545   -221.26816    -140.1786   -603.33945    79.713578    16.571564    16.571564    82.857819 
   39600    1086.2261   -3952.7946   -4132.3736    236.97399    1066.3016   -1995.3633    1639.9836    16.573195    16.573195    82.865976 
   39700     1081.832    -3952.825   -4131.6775    178.90575    1048.0022   -1234.9764    723.69152    16.574676    16.574676    82.873382 
   39800    1096.0151   -3952.8519   -4134.0492   -474.41721   -545.24787   -1121.5849    243.58115    16.575756    16.575756    82.878779 
   39900    1097.5767    -3952.855   -4134.3104   -339.20765     595.1273   -1046.3003   -566.44991    16.576307    16.576307    82.881534 
   40000    1068.8477   -3952.8404   -4129.5463    535.86641   -1299.8806    753.17626    2154.3036    16.576303    16.576303    82.881516 
   40100    1109.0906   -3952.8068   -4136.1658   -699.75995   -15.969683   -713.33426   -1369.9759    16.576117    16.576117    82.880584 
   40200    1106.9904    -3952.751   -4135.7628   -485.26278    287.97753   -675.55958   -1068.2063    16.575482    16.575482    82.877409 
   40300    1088.2467   -3952.7027   -4132.6157   -146.61391   -1964.3738    1717.3407   -192.80857     16.57419     16.57419     82.87095 
   40400    1107.4999   -3952.6755   -4135.7715    57.702819    322.05994   -54.872506   -94.078977    16.572192    16.572192    82.860961 
   40500    1088.4801   -3952.6391   -4132.5907    658.03687    474.98497    119.25221    1379.8734    16.570639    16.570639    82.853193 
   40600    1116.3648    -3952.607   -4137.1686   -116.13057   -536.46312   -99.596538    287.66796    16.569846    16.569846    82.849232 
   40700    1088.4078   -3952.6074    -4132.547    681.95899     2853.686     -374.229   -433.58005    16.569474    16.569474    82.847372 
   40800    1113.7921   -3952.5924   -4136.7286     288.9084   -298.33894    444.45295     720.6112    16.570058    16.570058    82.850289 
   40900    1090.1659   -3952.5779   -4132.8082    752.60993     1247.961    1372.7669   -362.89805    16.571345    16.571345    82.856726 
   41000    1093.8417   -3952.5832   -4133.4212    310.13509    115.04382    41.870481    773.49098    16.573022    16.573022    82.865112 
   41100    1102.0629   -3952.6357   -4134.8328     114.0042     1312.178   -294.79235   -675.37306    16.574032    16.574032    82.870159 
   41200    1101.4567   -3952.6759   -4134.7728   -99.491294    410.32471   -1108.2918    399.49323    16.574737    16.574737    82.873685 
   41300    1107.2559   -3952.7085   -4135.7642   -363.36291   -1423.3597   -42.508694    375.77966    16.574971    16.574971    82.874856 
   41400    1072.8504    -3952.744   -4130.1117    771.01578   -9.1830214    1089.8286    1232.4018     16.57469     16.57469    82.873451 
   41500    1112.5854   -3952.7498   -4136.6866   -648.64071   -1586.7165   -901.32842    542.12277    16.574856    16.574856    82.874279 
   41600    1114.7032   -3952.7676   -4137.0545   -461.76721   -914.31993   -311.29938   -159.68233    16.574437    16.574437    82.872183 
   41700    1063.5319   -3952.7846   -4128.6117    815.22223    1970.8142    1242.4872   -767.63469     16.57364     16.57364    82.868202 
   41800    1079.3423   -3952.7834   -4131.2243    569.21146   -598.61623    2308.4158   -2.1651377    16.573107    16.573107    82.865536 
   41900    1093.4342   -3952.8004    -4133.571   -101.23369    914.13676    -1224.268    6.4301847    16.572545    16.572545    82.862724 
   42000    1112.8483   -3952.7826   -4136.7629   -251.95348    540.31626   -1144.9547   -151.22202    16.572233    16.572233    82.861164 
   42100    1100.0723   -3952.7942   -4134.6622    -40.43768     443.0797   -921.93665    357.54391     16.57195     16.57195    82.859752 
   42200     1117.895    -3952.794   -4137.6085   -81.974371   -453.92333    642.59782    -434.5976     16.57214     16.57214    82.860701 
   42300    1111.2085   -3952.8134   -4136.5226    -433.3998   -205.96022    93.947835    -1188.187    16.572614    16.572614    82.863068 
   42400    1087.4416   -3952.8107   -4132.5906    252.80318     1066.909   -671.09606    362.59661    16.573442    16.573442    82.867208 
   42500    1088.6515   -3952.8045   -4132.7844    198.01191    -1464.996   -199.58263    2258.6144    16.574373    16.574373    82.871867 
   42600     1113.039   -3952.7766   -4136.7883   -672.56441   -286.66032   -1300.2698   -430.76312    16.575432    16.575432    82.877159 
   42700    1094.3592   -3952.7391   -4133.6627   -29.386133    204.69122   -1493.5721    1200.7225    16.575831    16.575831    82.879155 
   42800    1116.7426   -3952.6946   -4137.3186   -940.80596    27.804653   -1808.8999   -1041.3226    16.575703    16.575703    82.878515 
   42900    1120.0898   -3952.6611   -4137.8386    -623.1599    207.90459   -1881.7385   -195.64575     16.57488     16.57488      82.8744 
   43000    1101.9945   -3952.6521    -4134.838   -187.16181    471.49142   -1059.9016    26.924724    16.573308    16.573308    82.866541 
   43100    1109.1213   -3952.6367   -4136.0008   -264.93645    7.4540228   -86.598395   -715.66498    16.571795    16.571795    82.858973 
   43200    1108.3803   -3952.6148   -4135.8564    202.05422   -1999.2393    143.93671    2461.4652    16.570867    16.570867    82.854334 
   43300    1125.6165   -3952.6018   -4138.6929   -434.55873    874.10651   -342.91447   -1834.8682    16.570608    16.570608    82.853038 
   43400    1097.2351   -3952.5779   -4133.9769    478.17749     434.2852    -691.8701    1692.1174    16.571074    16.571074    82.855371 
   43500    1104.3669   -3952.5666   -4135.1447    -210.8756   -48.690385    -572.2377   -11.698711    16.571916    16.571916    82.859579 
   43600    1108.2102   -3952.5625    -4135.776   -168.97815    598.04603    351.17126   -1456.1518     16.57262     16.57262    82.863101 
   43700    1098.2679   -3952.5842   -4134.1539   -234.94721    -1214.557    1264.1955    -754.4801    16.573086    16.573086    82.865432 
   43800    1099.2892   -3952.5821   -4134.3207   -264.92257   -679.07473   -894.28957    778.59658    16.573548    16.573548    82.867741 
   43900    1103.8804   -3952.5729   -4135.0705   -346.62415   -398.54792    534.25252   -1175.5771     16.57399     16.57399    82.869951 
   44000    1100.9712   -3952.5728   -4134.5894   -119.38615   -643.88344    127.93884    157.78615    16.574275    16.574275    82.871375 
   44100    1113.1146    -3952.595   -4136.6192   -407.57951   -855.99452   -608.55987    241.81585    16.574049    16.574049    82.870243 
   44200    1080.8285   -3952.6006   -4131.2872    65.093761    776.86394   -272.82695   -308.75571    16.573834    16.573834    82.869168 
   44300    1100.3028   -3952.5698   -4134.4759    200.51311   -139.52033   -79.080416    820.14006    16.573749    16.573749    82.868747 
   44400    1079.8814   -3952.5786   -4131.1086    811.35198    1535.8494    -608.9839    1507.1905    16.573244    16.573244     82.86622 
   44500    1141.6234   -3952.5512   -4141.2887   -816.51781   -2421.8092   -1882.9871    1855.2428    16.573685    16.573685    82.868426 
   44600    1076.3777   -3952.5492      -4130.5     670.0858    1488.7492   -1881.9972    2403.5054    16.574053    16.574053    82.870265 
   44700    1096.9358   -3952.5231   -4133.8726   -172.26805   -1352.4875     684.0946    151.58874    16.574857    16.574857    82.874287 
   44800    1126.2028   -3952.4768   -4138.6648   -593.63589     210.0547   -1620.3435   -370.61892    16.575577    16.575577    82.877886 
   44900    1109.8256   -3952.4452   -4135.9257   -427.31014   -621.47198    176.40379   -836.86225    16.575707    16.575707    82.878533 
   45000    1105.2453    -3952.432   -4135.1553   -394.08821   -494.33199   -152.79575   -535.13689    16.575028    16.575028    82.875142 
   45100     1108.212   -3952.3877   -4135.6014   -61.668439   -1141.6129    94.384305    862.22329     16.57467     16.57467    82.873351 
   45200    1122.3952   -3952.3204   -4137.8789   -839.40788   -1702.1621   -676.56306   -139.49844    16.574733    16.574733    82.873664 
   45300    1115.0001   -3952.2621   -4136.5981   -488.65059   -903.90457    397.04039   -959.08759    16.574363    16.574363    82.871813 
   45400    1134.5234   -3952.2118   -4139.7755   -1011.9559   -1520.5982   -556.83122   -958.43831    16.574107    16.574107    82.870535 
   45500    1093.4168   -3952.1756   -4132.9434     415.1199   -181.56318    936.10434    490.81855    16.573618    16.573618    82.868092 
   45600    1100.0431   -3952.1423   -4134.0055    191.54029    355.76291    136.01495    82.843016    16.573359    16.573359    82.866796 
   45700    1101.4662   -3952.1129   -4134.2114   -151.65224    226.22379    -833.1272    151.94669    16.573451    16.573451    82.867256 
   45800     1082.327   -3952.0677    -4131.002     223.7579   -668.80709   -39.495555    1379.5764    16.573794    16.573794    82.868971 
   45900    1092.3528   -3952.0195   -4132.6114    299.99239    2116.3069   -869.63573   -346.69395    16.573896    16.573896    82.869481 
   46000    1074.9895   -3951.9906   -4129.7119    928.36735    659.61419    115.59074    2009.8971    16.573716    16.573716    82.868582 
   46100    1093.7377   -3951.9265   -4132.7472    204.17798    -240.6019    435.66936    417.46649    16.574733    16.574733    82.873664 
   46200    1120.2628   -3951.8576   -4137.0636   -832.97837   -669.35698   -1097.9024   -731.67574    16.575798    16.575798    82.878989 
   46300    1151.9075   -3951.8177   -4142.2553      -1652.6   -1276.9795   -2408.4609   -1272.3595    16.576095    16.576095    82.880477 
   46400    1084.4563   -3951.7966    -4131.083    398.01913   -427.10905     245.9424    1375.2241    16.575507    16.575507    82.877534 
   46500    1097.1168   -3951.7462   -4133.1256   -283.29252   -639.53328   -229.55529    19.210995    16.575297    16.575297    82.876486 
   46600    1106.1837   -3951.7184   -4134.5968   -224.79018    247.17033   -1086.1292    164.58836    16.574664    16.574664    82.873318 
   46700     1114.008   -3951.6959   -4135.8678    19.318121   -193.73618   -100.45982    352.15037    16.574062    16.574062     82.87031 
   46800    1095.7651   -3951.6906   -4132.8465    174.70052   -1421.6175    289.17451    1656.5445    16.573858    16.573858    82.869289 
   46900    1104.8115   -3951.6831   -4134.3346    38.227864   -839.89011    1426.7448   -472.17107    16.574334    16.574334    82.871668 
   47000    1111.9666   -3951.6827   -4135.5172   -295.80709   -1326.1008   -473.51226    912.19177    16.574996    16.574996    82.874982 
   47100    1091.6811   -3951.6868   -4132.1676    295.81575    720.66294   -80.280585    247.06489    16.575381    16.575381    82.876904 
   47200    1119.7382   -3951.7064   -4136.8257   -882.74247     1027.532   -2576.7003   -1099.0591    16.575715    16.575715    82.878574 
   47300    1081.5339     -3951.74   -4130.5432    58.935208   -561.97019   -769.83608    1508.6119    16.575302    16.575302    82.876511 
   47400    1081.3509   -3951.7743   -4130.5472    522.21694    927.22938    438.80919    200.61223    16.574295    16.574295    82.871476 
   47500    1102.0315   -3951.7874   -4133.9793   -18.556236    211.48238   -776.83309      509.682    16.573598    16.573598    82.867989 
   47600    1113.6638   -3951.8008   -4135.9158   -38.044427    635.64299   -1219.8616    470.08535    16.573117    16.573117    82.865583 
   47700    1108.1185   -3951.8315   -4135.0298    121.75425   -30.866461   -657.71704    1053.8463    16.572849    16.572849    82.864245 
   47800    1103.6101   -3951.8587   -4134.3116    24.021029   -827.44066   -321.04754    1220.5513    16.572948    16.572948    82.864739 
   47900    1089.0015   -3951.8927   -4131.9305     224.2788    1954.3507    169.41953   -1450.9339    16.573382    16.573382    82.866908 
   48000    1074.7357   -3951.9036   -4129.5829    678.79585    746.46332    2064.7991   -774.87486    16.574104    16.574104    82.870519 
   48100    1089.0848     -3951.91   -4131.9615    225.30111   -1131.0927    524.20246    1282.7935    16.575009    16.575009    82.875044 
   48200    1056.0123   -3951.9212   -4126.5051    745.51947    228.12247    742.36482    1266.0711    16.575681    16.575681    82.878403 
   48300    1122.0829   -3951.8868   -4137.3938   -888.65972    -1703.963   -291.97963   -670.03653    16.576641    16.576641    82.883203 
   48400    1081.0982   -3951.8509   -4130.5821   -345.95511   -649.72024    1110.4807   -1498.6258    16.577042    16.577042    82.885209 
   48500    1075.9105   -3951.7938   -4129.6673    441.89637    1331.5648   -97.627045    91.751345    16.576569    16.576569    82.882845 
   48600    1123.2196   -3951.7514   -4137.4462   -847.23926   -1095.5872   -475.02173   -971.10888    16.575629    16.575629    82.878144 
   48700    1122.8093   -3951.7177   -4137.3447   -509.70403    -1933.573    715.76081   -311.29994    16.574052    16.574052    82.870262 
   48800    1102.9708   -3951.6635   -4134.0107    97.342232   -1091.1817    486.90806    896.30038    16.572628    16.572628    82.863139 
   48900    1112.6073   -3951.6248   -4135.5651   -48.061417    320.12818   -822.96207    358.64964    16.571565    16.571565    82.857823 
   49000    1096.2618   -3951.5955   -4132.8336    797.90955    888.38625    519.34412    985.99829    16.571206    16.571206    82.856032 
   49100    1108.8869   -3951.5819   -4134.9072    145.54191    402.65051    399.67826   -365.70303    16.571815    16.571815    82.859074 
   49200     1124.184   -3951.5837    -4137.438   -649.96266   -970.28571   -926.48463   -53.117653    16.572688    16.572688    82.863439 
   49300    1090.9562   -3951.5895   -4131.9505     110.0509   -657.47054   -181.58402    1169.2073    16.573492    16.573492    82.867459 
   49400    1072.2561   -3951.5619   -4128.8313    352.17052    2081.7624   -547.69144   -477.55942    16.574652    16.574652     82.87326 
   49500    1083.5752   -3951.5155   -4130.6562    263.32576   -751.64637   -238.38008    1780.0037    16.575727    16.575727    82.878636 
   49600    1084.9721   -3951.4761   -4130.8477    90.500294    385.23464    1077.8883   -1191.6221    16.576328    16.576328    82.881641 
   49700    1100.0437   -3951.4189   -4133.2822   -304.10825    1262.4185   -770.16236   -1404.5809    16.576651    16.576651    82.883253 
   49800    1066.7521   -3951.3858   -4127.7452    540.94615    1005.5842    280.03895     337.2153    16.576156    16.576156    82.880782 
   49900    1086.2944   -3951.3459   -4130.9361    311.41657    398.09395   -1398.6001    1934.7559     16.57569     16.57569    82.878451 
   50000    1112.7023   -3951.3141   -4135.2702   -333.95912    783.48112   -1239.2083   -546.15021     16.57524     16.57524      82.8762 
Loop time of 240.41 on 1 procs for 50000 steps with 1280 atoms

Pair  time (%) = 212.786 (88.5098)
Neigh time (%) = 18.8171 (7.82709)
Comm  time (%) = 3.28681 (1.36717)
Outpt time (%) = 0.109881 (0.0457059)
Other time (%) = 5.40978 (2.25024)

Nlocal:    1280 ave 1280 max 1280 min
Histogram: 1 0 0 0 0 0 0 0 0 0
Nghost:    3981 ave 3981 max 3981 min
Histogram: 1 0 0 0 0 0 0 0 0 0
Neighs:    46543 ave 46543 max 46543 min
Histogram: 1 0 0 0 0 0 0 0 0 0

Total # of neighbors = 46543
Ave neighs/atom = 36.3617
Neighbor list builds = 5000
Dangerous builds = 0
unfix		1

# Melt half the system
region  liquid block INF INF INF INF INF ${nzhalf}
region  liquid block INF INF INF INF INF 10
group	liquid_group region liquid
646 atoms in group liquid_group

# Heat up one side to Tmelt to make sure it is melted
fix 2 liquid_group npt temp ${Tmelt} ${Tmelt} 1 z 0 0 10 drag 1.0
fix 2 liquid_group npt temp 2000 ${Tmelt} 1 z 0 0 10 drag 1.0
fix 2 liquid_group npt temp 2000 2000 1 z 0 0 10 drag 1.0
run		${eqsteps}
run		50000
Memory usage per processor = 3.13778 Mbytes
Step Temp TotEng PotEng Press Pxx Pyy Pzz Lx Ly Lz 
   50000    1112.7023   -3951.3141   -4135.2702   -333.95912    783.48112   -1239.2083   -546.15021     16.57524     16.57524      82.8762 
   50100    1076.2761   -3950.9273   -4128.8612    834.80404    1087.7875    286.66146    1129.9632     16.57524     16.57524    82.876245 
   50200    1088.9233   -3949.8555   -4129.8804    749.74758    769.03964    666.96974    813.23335     16.57524     16.57524    82.876583 
   50300    1089.6025   -3948.3975   -4128.5346    750.19948      952.578   -495.32407    1793.3445     16.57524     16.57524    82.877227 
   50400    1099.3544   -3946.8374   -4128.5868    746.36759    2002.0723    -121.6625    358.69294     16.57524     16.57524    82.878549 
   50500    1098.4895   -3945.3905   -4126.9968    1366.5378    1368.3173    1164.4366    1566.8595     16.57524     16.57524    82.880161 
   50600     1114.211   -3944.0189   -4128.2244    892.26183    903.93219    275.99145    1496.8618     16.57524     16.57524    82.882358 
   50700    1106.5128   -3942.6277   -4125.5605    1311.7299    1946.0068    933.06206    1056.1208     16.57524     16.57524    82.885413 
   50800    1110.6351   -3941.1654   -4124.7797    1646.6718    2113.6913    1297.3833    1528.9409     16.57524     16.57524    82.889243 
   50900    1111.1646   -3939.6363   -4123.3382    1702.2907    2098.1111    978.65655    2030.1045     16.57524     16.57524    82.893775 
   51000    1141.8228   -3938.0691   -4126.8395    1340.4652    1113.4199    175.51126    2732.4644     16.57524     16.57524    82.899196 
   51100     1133.562    -3936.467   -4123.8717    1623.5208    2635.1623   -9.7846044    2245.1849     16.57524     16.57524    82.905824 
   51200    1122.5453   -3934.8874   -4120.4707    2328.0217    2815.0835    2393.4517    1775.5298     16.57524     16.57524    82.913451 
   51300    1140.5855   -3933.2825   -4121.8484    2255.3221     2562.272    2054.0704    2149.6238     16.57524     16.57524    82.921828 
   51400    1134.1129   -3931.6679   -4119.1637    2601.3385    3677.6068    1772.7523    2353.6565     16.57524     16.57524    82.931207 
   51500    1175.6601   -3930.0254   -4124.3899    1798.8483    3485.7974    653.09394    1257.6535     16.57524     16.57524    82.941628 
   51600    1171.5656   -3928.3843   -4122.0719    2188.5924    2143.0762    1766.2054    2656.4955     16.57524     16.57524    82.952908 
   51700     1156.687   -3926.7499   -4117.9777     2584.321      3345.43    2182.0558    2225.4772     16.57524     16.57524    82.965411 
   51800    1189.9409   -3925.0974   -4121.8228    2246.3226    2441.8447    1426.2756    2870.8476     16.57524     16.57524    82.979082 
   51900    1155.0274   -3923.4347   -4114.3881    3177.4699    2580.5863    3105.7745    3846.0488     16.57524     16.57524    82.993973 
   52000    1151.0554   -3921.7715   -4112.0683    3620.4668    3682.9771    3216.9935    3961.4298     16.57524     16.57524    83.010305 
   52100    1186.9369   -3920.1009   -4116.3297    3090.6256    3657.5598    2473.9876    3140.3294     16.57524     16.57524    83.028029 
   52200    1175.8888   -3918.4078   -4112.8101    3318.5649    3671.6943    2528.4807    3755.5197     16.57524     16.57524    83.047188 
   52300    1200.4722   -3916.7124    -4115.179    2845.7947    3424.2921    2635.1218    2477.9701     16.57524     16.57524    83.067815 
   52400    1193.3578   -3915.0465   -4112.3369    2925.1215    4079.1486    2646.0392    2050.1767     16.57524     16.57524    83.089759 
   52500    1195.4996   -3913.3745   -4111.0189    3212.4579    4011.3864    2493.1817    3132.8056     16.57524     16.57524    83.113079 
   52600    1208.1412   -3911.6753   -4111.4097    2939.7052    3053.6095    3227.5354    2537.9707     16.57524     16.57524    83.138193 
   52700    1185.3542   -3909.9713   -4105.9385    3668.3322    4037.1817    3394.0012    3573.8137     16.57524     16.57524    83.164757 
   52800    1215.0504   -3908.2457   -4109.1224    3325.0842    3621.5426    3252.9731    3100.7368     16.57524     16.57524    83.192778 
   52900    1213.9055   -3906.5243   -4107.2117    3313.3663    3927.5144    3197.1796    2815.4049     16.57524     16.57524    83.221967 
   53000    1184.8597   -3904.8112   -4100.6967    4452.1859    4828.1641    4056.1573    4472.2364     16.57524     16.57524    83.252234 
   53100    1232.8501   -3903.0995   -4106.9189     2766.629    3813.2688    2159.4546    2327.1635     16.57524     16.57524    83.283817 
   53200    1200.6213   -3901.3651   -4099.8563    3575.7038    4801.1981    3308.4849    2617.4285     16.57524     16.57524    83.316312 
   53300    1254.9672   -3899.6151   -4107.0909     2672.947    3146.2056     3117.838    1754.7976     16.57524     16.57524    83.349566 
   53400    1203.9647   -3897.8778   -4096.9217    3872.7129    4524.7213    2622.8428    4470.5746     16.57524     16.57524    83.383666 
   53500    1233.2389   -3896.1213   -4100.0049    3522.6707    4817.2423    3021.5338    2729.2361     16.57524     16.57524    83.419077 
   53600    1247.3336   -3894.3668   -4100.5806    3033.8622    4004.9977    1079.2625    4017.3264     16.57524     16.57524    83.455265 
   53700    1239.4547   -3892.6425   -4097.5538    3215.7216    3633.0312      3064.15    2949.9836     16.57524     16.57524     83.49266 
   53800    1242.0724   -3890.9069   -4096.2509    3182.3118    4086.7279    2066.1288    3394.0786     16.57524     16.57524    83.530917 
   53900    1262.8621    -3889.147   -4097.9281    2961.5352    1940.6398    2912.1204    4031.8455     16.57524     16.57524    83.570239 
   54000    1265.2814   -3887.3971   -4096.5781    2622.4177    3695.0919    1209.7016    2962.4597     16.57524     16.57524    83.610811 
   54100    1283.7456   -3885.6261   -4097.8597    2622.5385    2523.2798    4297.4385    1046.8974     16.57524     16.57524     83.65223 
   54200    1273.7615   -3883.8622   -4094.4452     2523.348    2737.3666    859.57452    3973.1029     16.57524     16.57524    83.694094 
   54300    1245.8839   -3882.1229   -4088.0971    3504.9206    4606.1201    2427.3302    3481.3114     16.57524     16.57524    83.737196 
   54400    1252.9008   -3880.3246   -4087.4589    3264.0568    4302.3756     3550.845    1938.9499     16.57524     16.57524    83.780929 
   54500    1275.7893   -3878.5316   -4089.4498    2693.6445    1386.8296    2628.4935    4065.6104     16.57524     16.57524    83.824955 
   54600    1259.6909    -3876.747   -4085.0038    3216.2683    3677.7387    3603.1326    2367.9337     16.57524     16.57524    83.869727 
   54700    1259.2025   -3874.9792   -4083.1552    2686.3999      2636.55    2805.3525    2617.2972     16.57524     16.57524    83.914698 
[...]
  336300    979.90611   -3916.9765   -4078.9782   -2598.5881   -3316.4148   -3332.4743   -1146.8752    16.493931    16.493931    85.359208 
  336400    972.26879   -3916.9836   -4077.7227   -2209.7922   -2835.1105   -3269.6304   -524.63566    16.492263    16.492263    85.377521 
  336500    1012.4539    -3917.022   -4084.4047    -3142.831   -3675.2996   -2611.5048   -3141.6886    16.490197    16.490197    85.314436 
  336600    961.94937   -3917.0991   -4076.1322    78.460794    211.05192    798.08598   -773.75552    16.487966    16.487966    85.046574 
  336700    1004.0498    -3917.047   -4083.0402    1316.3725    752.26659   -652.31074    3849.1615    16.486015    16.486015    84.811648 
  336800    1014.0191   -3917.0658   -4084.7072    839.70612    1809.7736    642.69979    66.644933    16.484387    16.484387    84.879326 
  336900    1022.7824   -3917.0552   -4086.1454   -770.95579   -2163.6768    1006.1474    -1155.338     16.48316     16.48316    85.021192 
  337000    995.71713   -3917.0502   -4081.6658    245.75484    -966.3964    2195.5189     -491.858    16.482136    16.482136    85.070748 
  337100    972.63471   -3917.0495   -4077.8491    289.84587   -402.04975    1321.2582   -49.670882    16.481362    16.481362    85.107364 
  337200    1004.8172   -3917.0625   -4083.1826    -173.6609     -19.0376    400.57972   -902.52482    16.480732    16.480732    85.077589 
  337300    1002.2626   -3917.0515   -4082.7493     356.1378   -1277.9199    1980.6414    365.69188    16.480244    16.480244    85.011363 
  337400    1011.8573   -3917.0491   -4084.3331    167.41582    38.771022    696.42717   -232.95073    16.479887    16.479887    85.013874 
  337500    1012.3038     -3917.06   -4084.4178     214.9979   -676.20199    147.73222    1173.4635    16.479636    16.479636    85.035105 
  337600    1010.2478   -3917.0524   -4084.0704   -529.49428   -476.27745   -661.60055   -450.60482    16.479444    16.479444    85.111183 
  337700    979.86013   -3917.0546   -4079.0487   -370.09966    472.84124   -1048.1635   -534.97672    16.479152    16.479152     85.14313 
  337800    1006.0258   -3917.0614   -4083.3813   -805.52279     1066.879   -3203.5099   -279.93751    16.478777    16.478777    85.112148 
  337900    995.14615   -3917.0572   -4081.5785    290.59573     324.2081   -517.85541    1065.4345     16.47829     16.47829     85.04779 
  338000    1007.6286   -3917.0564   -4083.6413   -233.50185    1181.9015   -1323.3625   -559.04451    16.477802    16.477802    85.052066 
  338100    998.53309   -3917.0662   -4082.1475    -84.96388    823.29679   -2892.2591    1814.0707     16.47734     16.47734    85.070387 
  338200    991.17512   -3917.0841   -4080.9488    -262.9939   -568.32809   -436.39247    215.73886    16.476734    16.476734    85.217882 
  338300    1029.9544    -3917.072   -4087.3479   -2608.3391    -2597.222   -2053.2143   -3174.5809    16.476014    16.476014    85.301514 
  338400    974.51295   -3917.0927   -4078.2029    141.17784    169.39857   -396.82285    650.95781     16.47513     16.47513    85.174401 
  338500    1018.2363    -3917.079   -4085.4176    31.724994   -1999.7366    986.93192    1107.9797     16.47426     16.47426    85.080408 
  338600    1011.9692   -3917.0767   -4084.3792    393.10554    1154.5875   -116.24143    140.97055    16.473489    16.473489    85.067205 
  338700    1019.0756    -3917.085   -4085.5624    539.91999    1769.4518    477.80358   -627.49538    16.472851    16.472851    85.033057 
  338800    1004.9157   -3917.0772   -4083.2136    1169.4708    1366.2533    1203.7141    938.44515     16.47248     16.47248    84.997908 
  338900    1011.7443    -3917.114   -4084.3793    264.71476   -1977.7069    1511.1911    1260.6602    16.472296    16.472296    85.089307 
  339000    1009.1762   -3917.0952    -4083.936   -752.11495   -1077.3153    -452.6514   -726.37819    16.472194    16.472194     85.25537 
  339100    1028.8561   -3917.0949   -4087.1892   -2083.2261   -1503.8881    -3077.226   -1668.5642    16.472039    16.472039    85.282127 
  339200    1009.2607   -3917.0926   -4083.9474    -585.5273   -165.55089   -1003.1845   -587.84654    16.471666    16.471666     85.21662 
  339300     975.7854   -3917.1103   -4078.4308    874.05885    1675.2432    799.20693    147.72644    16.471223    16.471223    85.107546 
  339400    1020.2642   -3917.0969   -4085.7708    583.77917    1142.0642    465.93407    143.33927    16.470977    16.470977    85.025756 
  339500    1030.3996   -3917.1014   -4087.4509    34.567887   -1684.7043    825.10601    963.30192    16.470811    16.470811    85.043754 
  339600    1010.2489   -3917.0967   -4084.1148    351.48271    536.33554    1131.2295   -613.11692    16.470703    16.470703    85.079211 
  339700    1039.5719   -3917.1157   -4088.9816    34.347101   -1183.0904    1409.6719   -123.54021    16.470843    16.470843    84.994232 
  339800    1019.4834   -3917.1006   -4085.6454    1559.9274    152.05054    3322.7286    1205.0032    16.471166    16.471166    84.940792 
  339900    1019.9573   -3917.1356   -4085.7587    234.94993   -2012.6449    2084.5795     632.9151    16.471705    16.471705    85.045373 
  340000    1043.8302   -3917.1239   -4089.6938   -1592.7303    -784.4665   -1581.7013    -2412.023    16.472224    16.472224    85.213478 
  340100    992.91451   -3917.1262   -4081.2785   -462.07577    620.72522   -803.95532   -1202.9972    16.472574    16.472574    85.209679 
  340200    1008.7168   -3917.1408   -4083.9057    307.44783   -395.46585    1257.0189    60.790388    16.472732    16.472732    85.045075 
  340300    1032.5499   -3917.1316   -4087.8366     959.0196    1527.1958    192.28312    1157.5799    16.472895    16.472895    84.900683 
  340400    1012.1192   -3917.1277    -4084.455    1526.6141    2498.1297    1987.3353    94.377262    16.473254    16.473254    84.867035 
  340500    984.77759    -3917.192   -4079.9991     1130.646    1242.1523    422.59382    1727.1919    16.473989    16.473989    85.002635 
  340600     1003.024   -3917.1992   -4083.0229   -1151.0401   -2234.7719    454.38151   -1672.7299    16.474726    16.474726    85.276741 
  340700    948.13417   -3917.1558   -4073.9049   -299.36793   -1381.3129   -956.77669    1439.9858    16.475152    16.475152    85.378257 
  340800    996.63589   -3917.1766   -4081.9442    -1047.297   -431.37927   -1758.0464   -952.46532     16.47525     16.47525    85.323603 
  340900    1008.7091   -3917.1888   -4083.9523   -483.92603    834.35164   -1473.0477     -813.082    16.475093    16.475093    85.162507 
  341000    999.44424   -3917.1868   -4082.4187     872.8033    1881.2731   -438.63689    1175.7737    16.474881    16.474881    84.995988 
  341100    1012.7209   -3917.1876   -4084.6144    874.32071    2900.1977    203.38057   -480.61619    16.474858    16.474858    84.918241 
  341200    1015.7579   -3917.1813   -4085.1102    1722.2369    1399.3166    3584.1745    183.21949    16.475157    16.475157    84.854063 
  341300    999.19345   -3917.1865   -4082.3769    1931.0233     2494.324    1685.4391    1613.3069    16.475793    16.475793    84.875527 
  341400    1029.0517   -3917.1918   -4087.3185     603.1234     1867.674    347.86936   -406.17315    16.476615    16.476615    84.970175 
  341500    1007.5055   -3917.1953   -4083.7599     35.45668    903.50303    191.85002   -988.98301    16.477464    16.477464    85.062664 
  341600    1019.9113   -3917.1879   -4085.8034   -273.75084   -1483.4748     809.2425   -147.02026    16.478215    16.478215     85.09841 
  341700    1004.6427   -3917.1904   -4083.2816   -96.664933   -621.32749    250.71109    80.621597    16.478792    16.478792    85.124018 
  341800    1025.6432   -3917.1904   -4086.7536   -1007.3532   -308.52622   -124.93283   -2588.6004    16.479186    16.479186    85.143032 
  341900    1073.6034   -3917.1962   -4094.6884   -1253.5246   -1932.7712   -602.39716   -1225.4054    16.479411    16.479411    85.052611 
  342000    1046.0852   -3917.2129   -4090.1556    22.920445    231.08909   -346.05413    183.72637    16.479543    16.479543    84.921662 
  342100    1021.2231   -3917.2004   -4086.0328    1818.2655    2682.4246    1955.4772    816.89465    16.479819    16.479819    84.820829 
  342200    1004.7052   -3917.2024    -4083.304    2145.4867     2102.102    2324.4747    2009.8834    16.480415    16.480415    84.787364 
  342300    1030.9408   -3917.2248   -4087.6638    775.06821   -162.33798     1893.895    593.64762    16.481246    16.481246     84.89101 
  342400    1033.5653    -3917.228   -4088.1009   -1101.9831   -1838.6923   -671.85779    -795.3993    16.482128    16.482128    85.044553 
  342500    1010.1117   -3917.2222   -4084.2176   -1195.7684    -4018.356    272.04395    159.00673    16.482757    16.482757    85.151582 
  342600    1016.5394   -3917.2143   -4085.2723   -1694.0524   -2428.9321   -952.79532   -1700.4299    16.482963    16.482963    85.221892 
  342700    1025.9316    -3917.219   -4086.8299   -1641.0398   -3488.6128   -1903.9435    469.43679    16.482827    16.482827    85.161637 
  342800    1022.6156   -3917.2201   -4086.2827   -1399.5223   -3054.0911   -994.78216   -149.69364    16.482252    16.482252    85.114896 
  342900    1024.8672   -3917.2262    -4086.661   -767.25004   -1440.7378     180.8236   -1041.8359    16.481362    16.481362    85.065713 
  343000    1056.4885    -3917.225   -4091.8876   -886.20886   -3089.4953   -541.53086    972.39963    16.480408    16.480408    84.999964 
  343100    1041.7648   -3917.2545   -4089.4829   -883.90282   -3578.9873   -423.70861    1350.9874    16.479331    16.479331    85.067368 
  343200    1014.9021   -3917.2367   -4085.0241   -1700.1639   -498.30229   -2744.9564    -1857.233    16.478121    16.478121    85.202684 
  343300    992.24613   -3917.2413   -4081.2831   -563.08644   -187.23211   -727.86289   -774.16433    16.476802    16.476802     85.20575 
  343400    1014.5171   -3917.2468   -4084.9705   -287.92279   -1611.8013   -716.91861    1464.9515    16.475422    16.475422    85.152057 
  343500    990.27967   -3917.2785   -4080.9952    132.14369   -753.47254   -2488.0033    3637.9069    16.473945    16.473945    85.184873 
  343600    1009.8035   -3917.3277   -4084.2722   -2196.4667   -3193.5594   -3273.3791   -122.46154    16.472375    16.472375    85.428107 
  343700     1027.162   -3917.2916   -4087.1059   -3663.9207   -3960.6875   -2719.4689   -4311.6057     16.47055     16.47055    85.560632 
  343800    987.56424   -3917.4224   -4080.6902   -643.54153    237.21218   -254.64788   -1913.1889    16.468499    16.468499    85.332855 
  343900    1006.4715     -3917.44   -4083.8336    1899.0633    939.72279    4092.9736    664.49353    16.466684    16.466684    84.966353 
  344000    1034.1733   -3917.3686   -4088.3419    2239.7662    2876.0744    2333.7969    1509.4274    16.465462    16.465462    84.764471 
  344100    1029.3304   -3917.3777   -4087.5504    2529.3812    3317.6579    2228.6742    2041.8116    16.464926    16.464926    84.796606 
  344200    1049.5792   -3917.4124   -4090.9328    243.54663    190.31432    509.65047     30.67509    16.464902    16.464902    84.992282 
  344300     1045.563   -3917.4155   -4090.2719   -1175.8288   -82.136419    -1388.829   -2056.5209     16.46505     16.46505    85.204101 
  344400    978.57077   -3917.3904   -4079.1714     345.2216     1170.349    122.07346   -256.75768    16.465139    16.465139    85.277521 
  344500    984.79937   -3917.3918   -4080.2025    431.51606   -538.23332   -58.739517     1891.521    16.465171    16.465171    85.281063 
  344600    1000.9312   -3917.4008   -4082.8785   -1217.0207    -396.7552   -3111.8161   -142.49073    16.465023    16.465023     85.37884 
  344700    991.36514   -3917.3963   -4081.2925   -1425.7182   -727.43387   -2369.3599   -1180.3608    16.464608    16.464608    85.425376 
  344800    1005.5015   -3917.4024   -4083.6357    -1307.797    198.97848   -2756.1899   -1366.1795      16.4639      16.4639    85.369121 
  344900    1018.7933   -3917.4279   -4085.8586     -317.241   -481.34671   -507.59406    37.217772    16.463036    16.463036    85.238685 
  345000    1012.7113   -3917.4101   -4084.8353    1227.7594    730.82163   -79.897711    3032.3542    16.462191    16.462191    85.142252 
  345100    993.77677   -3917.4305   -4081.7254    5.6581009    557.19281   -1538.1868    997.96831    16.461526    16.461526    85.249497 
  345200    990.77096   -3917.4262   -4081.2242   -155.02146      538.727   -1499.6346    495.84327     16.46095     16.46095    85.374571 
  345300     991.4929   -3917.4304   -4081.3477   -1561.1269    474.18913   -4937.7139   -219.85592    16.460223    16.460223    85.495869 
  345400    1020.8807   -3917.4333   -4086.2091   -2417.6352   -2850.3124   -1231.3737   -3171.2195    16.459187    16.459187    85.541743 
  345500    1018.6137    -3917.494    -4085.895   -769.21649   -2798.8964    1109.0171   -617.77015    16.458019    16.458019    85.358067 
  345600    1019.7299   -3917.4617   -4086.0472    743.72804   -1422.0071    1506.3761    2146.8151    16.456925    16.456925    85.151473 
  345700    1058.5969   -3917.4644   -4092.4756   -983.85638   -3326.3731    284.70126    90.102673    16.455983    16.455983    85.156251 
  345800    992.97341   -3917.5234   -4081.6854    901.80474   -1036.1606     1248.989    2492.5858    16.455138    16.455138    85.312579 
  345900    1019.1626   -3917.5016   -4085.9934   -2151.1661   -1239.5711    -2610.964   -2602.9631    16.454421    16.454421    85.564378 
  346000    990.74841   -3917.5343   -4081.3285   -954.58422    1320.4782    -1384.808   -2799.4229    16.453618    16.453618    85.511848 
  346100    1013.5731   -3917.6793    -4085.247    1237.3835    1843.6209    2557.2871   -688.75741    16.452951    16.452951    85.150531 
  346200    1013.6422    -3917.577   -4085.1562    3286.0022    2583.5224    2399.8102     4874.674    16.452713    16.452713    84.820583 
  346300    1030.2624   -3917.6811   -4088.0079    1478.5128    4903.4663   -751.03449    283.10655    16.452993    16.452993    84.972664 
  346400    989.83935   -3917.6384   -4081.2824    349.82033    2018.6201   -297.56672   -671.59235    16.453614    16.453614    85.244798 
  346500    1008.5265   -3917.6124   -4084.3458   -341.77818    561.26265    427.47296   -2014.0701    16.454259    16.454259    85.362174 
  346600    1017.8506   -3917.6296   -4085.9044   -635.85625    81.809652   -1956.8228   -32.555634    16.454848    16.454848    85.272689 
  346700    1004.1319    -3917.616   -4083.6228     614.9367    379.53132    1368.1442    97.134545    16.455251    16.455251    85.197723 
  346800    1038.5257   -3917.6181    -4089.311    -432.4928   -486.43057    1104.2873   -1915.3351    16.455612    16.455612    85.185259 
  346900    1018.9778   -3917.6235   -4086.0847    489.97535   -796.02559    1360.1261    905.82551    16.455977    16.455977    85.176281 
  347000    1002.6764   -3917.6182   -4083.3844     212.2063    297.99411    421.70471   -83.079913    16.456339    16.456339     85.21004 
  347100    974.77705   -3917.6173   -4078.7711    561.47321    1003.4431    397.04469    283.93186    16.456705    16.456705    85.246294 
  347200    1032.0902   -3917.6211   -4088.2501   -1056.1222   -1994.8527    1298.2595   -2471.7736    16.457048    16.457048    85.295356 
  347300    1029.3856   -3917.6493   -4087.8312    176.70492   -1568.8549    2086.6915    12.278135    16.457355    16.457355    85.192775 
  347400    1003.3415   -3917.6288   -4083.5049    1710.0483     1695.477   -1211.4564    4646.1244    16.457735    16.457735    85.105471 
  347500    994.75603   -3917.6737   -4082.1305     47.92508     773.8091   -154.15971   -475.87415    16.458069    16.458069    85.286744 
  347600    1009.2488   -3917.6402    -4084.493   -1238.7928    295.77882   -1284.4745   -2727.6826    16.458271    16.458271    85.406296 
  347700    1012.7758   -3917.6706   -4085.1065   -461.48529   -1645.1568    963.42025   -702.71931    16.458324    16.458324    85.294164 
  347800    1031.2952    -3917.677   -4088.1746    1021.4845    1759.4382    454.85426     850.1609    16.458289    16.458289      85.0982 
  347900    1044.5072   -3917.6599   -4090.3417    889.44015    1792.3963    321.43939    554.48478    16.458453    16.458453    85.016424 
  348000    1005.1972   -3917.7035   -4083.8864     1071.105    60.264564     347.9255     2805.125    16.458754    16.458754    85.110421 
  348100      999.797   -3917.6841   -4082.9742   -420.20202   -53.154845    387.81092   -1595.2621    16.459065    16.459065    85.323832 
  348200    1020.7688   -3917.6774   -4086.4347   -1524.4002   -1262.5975    913.47697     -4224.08    16.459354    16.459354    85.385022 
  348300    1018.2159    -3917.757   -4086.0922   -168.12352   -328.13557    368.65307   -544.88805    16.459558    16.459558    85.205318 
  348400     1019.861   -3917.7647   -4086.3719    1909.1618    2531.9729     1341.377    1854.1355    16.459882    16.459882     84.92353 
  348500    1033.5575   -3917.7197   -4088.5912    2439.1978   -324.55447    3920.0355    3722.1123    16.460539    16.460539    84.800323 
  348600    1002.0929   -3917.7473    -4083.417    2752.7605    2811.8287    5380.8069    65.645794    16.461502    16.461502    84.926546 
  348700    998.55111   -3917.7435   -4082.8277    1534.9458    1888.6142    1774.2036     942.0197    16.462857    16.462857    85.041375 
  348800    1030.9628    -3917.754   -4088.1966   -241.96737    595.55863     418.6779   -1740.1386    16.464313    16.464313    85.162381 
  348900     1048.901   -3917.7483   -4091.1566   -881.95931   -363.23079    -1198.013   -1084.6342    16.465659    16.465659    85.167862 
  349000    1023.5557   -3917.7459   -4086.9639    142.77015   -2263.3835    1789.4071    902.28685    16.466771    16.466771    85.103821 
  349100    1006.2549   -3917.7452    -4084.103    410.97696    104.88849    313.30658    814.73581    16.467638    16.467638    85.102345 
  349200     985.6427   -3917.7463   -4080.6965    855.68207    1187.2684    368.35818    1011.4196     16.46838     16.46838    85.145209 
  349300    1048.6963   -3917.7458   -4091.1202   -1405.2555   -1288.2956   -465.67987   -2461.7912    16.469019    16.469019    85.200518 
  349400    1020.4907   -3917.7565   -4086.4678   -58.226789   -2275.4897   -58.571901    2159.3813    16.469454    16.469454     85.09487 
  349500    1024.2365   -3917.7502   -4087.0808    53.608594   -651.65189    861.16038   -48.682701     16.46973     16.46973    85.062004 
  349600     1020.853   -3917.7475   -4086.5187    267.79367    1281.0528   -504.33374     26.66195    16.469961    16.469961    85.048782 
  349700     1016.656   -3917.7514   -4085.8287    40.208337    1407.3414    412.90634   -1699.6228    16.470186    16.470186    85.055616 
  349800    1033.5674   -3917.7495   -4088.6227     40.38506    -848.6925    1094.9103   -125.06263      16.4705      16.4705    85.039013 
  349900    978.03196   -3917.7481     -4079.44    1277.9219    1247.7439    1957.6613    628.36038    16.470841    16.470841    85.035097 
  350000    1018.1017    -3917.757   -4086.0733    404.90081   -609.98864   -711.10789     2535.799    16.471242    16.471242     85.04226 
Loop time of 930.046 on 1 procs for 200000 steps with 1280 atoms

Pair  time (%) = 824.115 (88.61)
Neigh time (%) = 72.8306 (7.83085)
Comm  time (%) = 12.1985 (1.3116)
Outpt time (%) = 0.444956 (0.0478423)
Other time (%) = 20.4578 (2.19966)

Nlocal:    1280 ave 1280 max 1280 min
Histogram: 1 0 0 0 0 0 0 0 0 0
Nghost:    3626 ave 3626 max 3626 min
Histogram: 1 0 0 0 0 0 0 0 0 0
Neighs:    45211 ave 45211 max 45211 min
Histogram: 1 0 0 0 0 0 0 0 0 0

Total # of neighbors = 45211
Ave neighs/atom = 35.3211
Neighbor list builds = 20000
Dangerous builds = 0
unfix		4
