LAMMPS (13 Jan 2014)
dimension       3
boundary        p p p
units           metal

atom_style	atomic
neighbor	0.3 bin
neigh_modify	every 10 delay 0 check no

# Number of steps for the equilibration steps
variable        eqsteps equal 50000

# Number of steps to run our NPH simulation
variable        simsteps equal 200000

# Our trial melting temperature
variable	T equal 1100.0
variable	T2 equal 2*${T}
variable	T2 equal 2*1100

# Some high temperature to melt the crystal
variable	Tmelt equal 2000.0

#System size
variable	nx equal 10
variable	ny equal 10
variable	nz equal 20
variable	nzhalf equal ${nz}*0.5
variable	nzhalf equal 20*0.5
variable	a equal 4.050
variable	length equal ${nz}*${a}
variable	length equal 20*${a}
variable	length equal 20*4.05

lattice		fcc ${a}
lattice		fcc 4.05
Lattice spacing in x,y,z = 4.05 4.05 4.05

region         box block 0 ${nx} 0 ${ny} 0 ${nz}
region         box block 0 10 0 ${ny} 0 ${nz}
region         box block 0 10 0 10 0 ${nz}
region         box block 0 10 0 10 0 20
create_box     1 box
Created orthogonal box = (0 0 0) to (40.5 40.5 81)
  1 by 1 by 1 MPI processor grid
create_atoms   1 box
Created 8000 atoms

mass		1 26.9815

pair_style	eam/alloy
pair_coeff	* * Al_potential.alloy Al

velocity	all create ${T2} 1337
velocity	all create 2200 1337

# Create a dump file. This can be visualized with
# e.g. OVITO (http://www.ovito.org/)
dump		id all atom 1000 atomsdump

# 1 fs timestep
timestep	0.001
thermo_style	custom step temp etotal pe press pxx pyy pzz lx ly lz

# output every 100th timestep
thermo		100

# Equilibration the whole system to the trial melting temperature
fix		1 all npt temp ${T} ${T} 1 iso 0 0 3 drag 1.0
fix		1 all npt temp 1100 ${T} 1 iso 0 0 3 drag 1.0
fix		1 all npt temp 1100 1100 1 iso 0 0 3 drag 1.0
run		${eqsteps}
run		50000
Memory usage per processor = 5.95314 Mbytes
Step Temp TotEng PotEng Press Pxx Pyy Pzz Lx Ly Lz 
       0         2200   -24902.558   -27177.252    14223.455    14057.267    14040.077     14573.02         40.5         40.5           81 
     100    1043.0871   -24926.488    -26004.99    36425.988    36772.095    36547.758     35958.11    40.590658    40.590658    81.181316 
     200    1037.9712   -24965.339   -26038.551    23981.912    24754.561    23914.102    23277.072    40.808501    40.808501    81.617003 
     300    1019.2236   -24985.415   -26039.244    14506.409    14642.636    14152.045    14724.545    40.990719    40.990719    81.981438 
     400    1010.2892   -24992.028   -26036.619    7917.7862    8092.9514    7904.4176    7755.9896     41.12506     41.12506    82.250119 
     500    991.26378   -24991.886   -26016.805    3109.0469    3137.8335    2982.5327    3206.7745    41.232244    41.232244    82.464489 
     600    977.37214   -24988.114    -25998.67    -125.8905    130.57886    1.2039431   -509.45431    41.311267    41.311267    82.622535 
     700    980.47853   -24982.818   -25996.585   -2558.7725   -3076.2329   -2175.4571   -2424.6273    41.360886    41.360886    82.721772 
     800    990.34936   -24977.603   -26001.577   -3639.1271   -3472.1645   -3785.0711   -3660.1457    41.383797    41.383797    82.767594 
     900    970.55034   -24973.036   -25976.538   -3179.8509    -3105.826    -3424.129   -3009.5976    41.384387    41.384387    82.768775 
    1000    992.49496   -24968.839   -25995.031   -2728.1889   -2894.7629   -2568.2204   -2721.5835    41.369832    41.369832    82.739663 
    1100    998.06087   -24964.739   -25996.686   -1674.8504   -1667.2964   -1425.7276   -1931.5274    41.346976    41.346976    82.693952 
    1200    994.57699   -24960.589   -25988.934   -298.25395    10.036507   -26.993666    -877.8047    41.321834    41.321834    82.643667 
    1300    996.69744   -24956.286   -25986.823    860.56318    1034.1852    597.78751     949.7168    41.300525    41.300525     82.60105 
    1400     1000.244   -24951.889   -25986.093     1530.277    1519.4342    1215.8449    1855.5517    41.287155    41.287155    82.574309 
    1500     1009.534   -24947.548   -25991.358    1698.2882    1597.2241    1923.7084    1573.9323    41.283355    41.283355     82.56671 
    1600    1003.4993   -24943.302   -25980.872    1689.8506    1962.3865    1430.9165    1676.2487    41.288463    41.288463    82.576925 
    1700    1011.8651   -24939.166   -25985.386    1073.2889    1327.6376    1347.2476    544.98144     41.30023     41.30023     82.60046 
    1800    1020.0322    -24934.99   -25989.654    268.54056   -20.248714   -201.70672    1027.5771    41.315542    41.315542    82.631085 
    1900    994.46621   -24930.853   -25959.083      320.028   -129.03738     680.7853    408.33609    41.330114    41.330114    82.660228 
    2000    1023.3832    -24926.65   -25984.779   -805.39859   -597.23663   -836.50693   -982.45222    41.342437    41.342437    82.684874 
    2100    1004.1625   -24922.478   -25960.734   -505.36565   -766.56282   -627.28718   -122.24696    41.349869    41.349869    82.699738 
    2200    1004.7466   -24918.312   -25957.172   -725.66285   -449.15756   -1375.6921   -352.13893    41.352975    41.352975     82.70595 
    2300    1017.6619   -24914.165   -25966.378   -826.37331   -827.95079   -1222.3796   -428.78954    41.351758    41.351758    82.703516 
    2400    1017.6142   -24910.078   -25962.242   -471.91132   -815.42544   -651.45489    51.146371    41.347307    41.347307    82.694614 
    2500    1003.1494   -24906.077   -25943.285    258.84206    363.47537    460.35114   -47.300312    41.341008    41.341008    82.682016 
    2600    1026.3416   -24902.124   -25963.312    207.00259    300.54191    325.40942   -4.9435539    41.334939    41.334939    82.669879 
    2700    1024.4335   -24898.299   -25957.514    480.92071    821.86419   -51.340833    672.23878    41.330403    41.330403    82.660806 
    2800    1017.1695   -24894.527   -25946.231      930.947    1313.4313    917.59976    561.80994    41.329195    41.329195    82.658391 
    2900    1017.9407   -24890.763   -25943.264    805.11275    355.61284    906.43017    1153.2952    41.331779    41.331779    82.663558 
    3000    1025.1253   -24887.054   -25946.984    547.54793    795.29735    495.68379    351.66266    41.337197    41.337197    82.674394 
    3100    1025.1751   -24883.334   -25943.316    284.68899   -382.61132    498.03812    738.64017    41.344874    41.344874    82.689749 
    3200    1026.6958   -24879.649   -25941.203   -24.299479    163.38665   -70.509323   -165.77577    41.352695    41.352695     82.70539 
    3300    1034.6602   -24875.995   -25945.784   -273.35741    -691.6306   -390.12746    261.68584    41.359595    41.359595    82.719191 
    3400    1029.8057   -24872.396   -25937.166    -380.4506   -150.43192   -451.23973   -539.68017    41.364544    41.364544    82.729088 
    3500    1031.3071   -24868.786   -25935.108   -512.67355    -136.7749   -630.08967   -771.15607    41.367526    41.367526    82.735052 
    3600    1040.3038   -24865.221   -25940.845   -564.19807   -635.71324   -509.62522   -547.25574    41.367798    41.367798    82.735595 
    3700    1036.2395   -24861.757   -25933.179   -341.24906    -765.9542   -560.95124    303.15825    41.365615    41.365615     82.73123 
    3800    1030.0679    -24858.28   -25923.321    48.853262    166.89825   -455.25518    434.91671    41.362239    41.362239    82.724477 
    3900    1045.9926   -24854.801   -25936.307    117.68496     143.7539     129.3737    79.927287    41.359266    41.359266    82.718532 
    4000    1048.6754   -24851.452   -25935.732    138.49093    458.16531   -381.72666    339.03415    41.357161    41.357161    82.714321 
    4100    1042.0809   -24848.208   -25925.669    444.50041    468.88313    495.04611      369.572    41.356777    41.356777    82.713553 
    4200    1037.3731   -24844.987    -25917.58    499.74238    111.85191    323.92192    1063.4533    41.358943    41.358943    82.717886 
    4300    1035.4458   -24841.778   -25912.379     390.4221    116.11763    185.13245    870.01623    41.363379    41.363379    82.726758 
    4400    1057.0206   -24838.535   -25931.443   -328.45953   -582.37793    -142.4511   -260.54957     41.36926     41.36926     82.73852 
    4500    1050.0193   -24835.345   -25921.014   -253.35807   -481.35832   -1002.9598    724.24395    41.374893    41.374893    82.749786 
    4600    1052.8767   -24832.221   -25920.845   -378.91004   -431.51299    68.620245   -773.83737     41.37942     41.37942    82.758839 
    4700    1041.6545   -24829.197   -25906.218   -75.270149    616.97921    -251.2966   -591.49305    41.381635    41.381635    82.763271 
    4800    1052.1333   -24826.199   -25914.054   -333.88913   -862.42867    -65.71377   -73.524932     41.38222     41.38222    82.764441 
    4900      1041.75   -24823.228   -25900.347    102.88609   -312.70695   -103.50753    724.87275    41.381413    41.381413    82.762826 
    5000    1058.9295   -24820.243   -25915.125   -119.04351   -355.82902   -529.66685    528.36533    41.380338    41.380338    82.760677 
    5100    1058.8612   -24817.342   -25912.154   -125.74683   -220.04184     398.9808   -556.17945    41.379389    41.379389    82.758778 
    5200    1069.0247   -24814.448   -25919.768   -257.16528   -682.57398    258.22825    -347.1501    41.378923    41.378923    82.757846 
    5300    1057.9919   -24811.645   -25905.558    237.34268    160.09946    375.27955    176.64903    41.378783    41.378783    82.757566 
    5400    1060.1103   -24808.961   -25905.064    283.04047   -194.92801    453.44339    590.60604    41.379156    41.379156    82.758312 
    5500    1055.2795   -24806.346   -25897.454    252.30498    32.059288   -515.16886    1240.0245    41.380803    41.380803    82.761605 
    5600    1061.8656     -24803.7   -25901.618    104.70909    105.85471    133.57434    74.698228    41.383494    41.383494    82.766988 
    5700    1058.6615   -24801.155    -25895.76    145.72466   -37.050504   -26.125094    500.34959    41.386211    41.386211    82.772421 
    5800    1061.3083   -24798.635   -25895.977    11.802434   -74.950943   -123.70014    234.05838    41.389358    41.389358    82.778717 
    5900    1059.6505   -24796.112    -25891.74   -85.953363   -239.70859   -28.291776    10.140273    41.392427    41.392427    82.784854 
    6000     1064.096   -24793.594   -25893.818   -19.115841   -212.75659    297.62827   -142.21921    41.394862    41.394862    82.789723 
    6100    1063.9294   -24791.156   -25891.207   -95.572315    218.46705   -793.77332    288.58932    41.396473    41.396473    82.792946 
    6200    1063.6088   -24788.658   -25888.378   -163.34196    -435.4782   -300.96906    246.42136    41.397638    41.397638    82.795275 
    6300    1073.4658   -24786.176   -25896.089   -435.40132   -676.81075    1.5399597   -630.93316     41.39813     41.39813     82.79626 
    6400    1066.0736   -24783.671    -25885.94   -76.720438   -175.10195   -113.78597    58.726614    41.398007    41.398007    82.796014 
    6500    1061.6088   -24781.249   -25878.901    104.78678   -142.83472    419.46783     37.72723    41.397305    41.397305     82.79461 
    6600    1075.2222   -24778.853   -25890.581    25.342571   -119.91092    229.60927   -33.670629    41.396888    41.396888    82.793775 
    6700    1077.0238   -24776.537   -25890.128   -225.12183    417.03034   -586.66591   -505.72992    41.396738    41.396738    82.793475 
    6800    1081.3918   -24774.282   -25892.389   -95.006432    49.061308   -470.50646    136.42586    41.397043    41.397043    82.794086 
    6900    1059.5183   -24772.072   -25867.563    553.19447    976.45424    339.29747     343.8317    41.398173    41.398173    82.796346 
    7000     1073.919   -24769.918   -25880.298    125.04795    17.962344    485.08234   -127.90082    41.400264    41.400264    82.800529 
    7100    1078.7644   -24767.756   -25883.147   -146.63468   -339.29839   -111.52737    10.921706    41.403029    41.403029    82.806057 
    7200    1076.0509   -24765.661   -25878.246   -74.019972   -421.54727    -33.83686    233.32421    41.405683    41.405683    82.811367 
    7300    1078.1724   -24763.566   -25878.344   -293.41339   -57.386872    -385.4542    -437.3991    41.408262    41.408262    82.816523 
    7400    1057.7808   -24761.572   -25855.267    293.28715    616.41739    354.66763   -91.223564    41.409407    41.409407    82.818814 
    7500    1087.5953   -24759.558    -25884.08   -389.18728   -129.73682   -757.22933   -280.59568    41.410204    41.410204    82.820408 
    7600    1075.0572   -24757.614   -25869.172   -15.358535    38.719771     1.804978   -86.600352    41.409976    41.409976    82.819952 
    7700    1072.1036   -24755.738   -25864.242    193.03848    836.37913    -602.8814    345.61771    41.409371    41.409371    82.818743 
    7800    1074.3775   -24753.892   -25864.747    200.07655   -22.695396    433.12962    189.79541    41.409151    41.409151    82.818303 
    7900    1076.1167   -24752.038   -25864.691    134.66897    218.44542   -408.37103    593.93252    41.409363    41.409363    82.818725 
    8000    1079.6858   -24750.313   -25866.657    183.72687   -52.558701    289.50879    314.23051    41.409574    41.409574    82.819149 
    8100    1089.4332   -24748.648    -25875.07   -173.61821    212.82503   -198.68709   -534.99257    41.410283    41.410283    82.820567 
    8200    1086.6313   -24747.017   -25870.541    35.460267   -168.74261   -267.48902    542.61243    41.411327    41.411327    82.822654 
    8300    1082.1498   -24745.434   -25864.325    143.20847    95.163705     26.08552    308.37618    41.412739    41.412739    82.825477 
    8400    1072.1615   -24743.867    -25852.43    324.35749    479.73872    27.361686    465.97205    41.414636    41.414636    82.829272 
    8500    1085.0211   -24742.288   -25864.147   -151.21864    -243.0498   -40.380097   -170.22601    41.416998    41.416998    82.833996 
    8600     1080.525   -24740.719    -25857.93    -20.15491   -271.01195    -122.2809    332.82812    41.419113    41.419113    82.838226 
    8700     1087.019     -24739.2   -25863.125    -236.9592   -491.71163    219.65282   -438.81879    41.420313    41.420313    82.840625 
    8800    1085.2041    -24737.71   -25859.759   -57.288389   -675.35927    269.48495    234.00915     41.42032     41.42032     82.84064 
    8900    1083.9294   -24736.245   -25856.976    19.063588    51.760972    21.597286   -16.167495    41.419674    41.419674    82.839349 
    9000    1071.0597    -24734.75   -25842.174     384.9476    1188.2362   -279.47735     246.0839    41.419269    41.419269    82.838538 
    9100    1097.5812   -24733.231   -25868.077   -171.47569   -532.10457   -77.391482    95.068983    41.419121    41.419121    82.838242 
    9200    1094.8142   -24731.869   -25863.855   -136.40822    46.815943   -349.99296   -106.04765    41.418461    41.418461    82.836922 
    9300    1088.3215   -24730.548    -25855.82    148.67776    178.22693   -192.10228    459.90862    41.417969    41.417969    82.835938 
    9400    1086.2594   -24729.288   -25852.428    126.76055   -375.89057    15.015158    741.15708    41.417824    41.417824    82.835648 
    9500     1097.687   -24727.983   -25862.939   -42.387649   -247.04945    26.713239     93.17326    41.418838    41.418838    82.837676 
    9600    1098.5546   -24726.758   -25862.611   -199.56713   -24.336471   -146.13453    -428.2304    41.420512    41.420512    82.841025 
    9700    1087.0437    -24725.55   -25849.501    108.32899    293.77126   -413.06523    444.28094    41.422724    41.422724    82.845449 
    9800    1099.3469   -24724.357   -25861.028   -235.45661   -553.36731       47.276   -200.27852    41.425284    41.425284    82.850568 
    9900    1085.5845   -24723.235   -25845.677    61.640061    480.15583    114.51819   -409.75385    41.427566    41.427566    82.855132 
   10000    1092.6603    -24722.12   -25851.878   -153.46585    195.13604    212.97528   -868.50887    41.429377    41.429377    82.858753 
   10100    1094.2109   -24721.039     -25852.4   -333.24505   -15.774641   -605.36662    -378.5939    41.430304    41.430304    82.860607 
   10200    1082.9472   -24719.938   -25839.653    76.965702   -319.36917    222.65216    327.61412    41.430308    41.430308    82.860615 
   10300    1091.3406   -24718.754   -25847.148   -146.29607   -101.01219   -315.66052   -22.215511    41.430019    41.430019    82.860038 
   10400    1094.3394   -24717.626    -25849.12   -113.15927    492.69081   -849.10339    16.934768    41.428829    41.428829    82.857657 
   10500    1094.8056   -24716.541   -25848.518   -2.9451696   -5.0708323    462.41965   -466.18433    41.427137    41.427137    82.854275 
   10600    1085.6563   -24715.535   -25838.051    186.24209   -34.432945    488.30859    104.85061    41.425323    41.425323    82.850647 
   10700    1086.9629    -24714.51   -25838.378    313.32204    47.648702    362.70214    529.61528     41.42431     41.42431    82.848619 
   10800    1095.8843   -24713.491   -25846.582    134.16099   -141.60769    197.03376    347.05691     41.42434     41.42434     82.84868 
   10900    1092.1343   -24712.581   -25841.796    291.49855    171.42507   -184.39214    887.46274    41.425175    41.425175     82.85035 
   11000    1100.4084    -24711.67    -25849.44    144.41551    19.342707    555.55031    -141.6465    41.427268    41.427268    82.854537 
   11100     1105.277   -24710.791   -25853.594   -179.84918   -7.4596595   -483.54841    -48.53948    41.430102    41.430102    82.860204 
   11200    1097.3096   -24709.977   -25844.542   -236.89737   -568.72737    -138.7731   -3.1916386    41.432747    41.432747    82.865495 
   11300    1104.7934   -24709.131   -25851.434   -453.90911   -150.49767   -598.56327    -612.6664    41.434958    41.434958    82.869916 
   11400    1077.6836   -24708.372   -25822.645    270.95004    118.09909    516.88612    177.86489    41.435543    41.435543    82.871086 
   11500    1099.7947   -24707.612   -25844.747   -251.94233   -387.56931   -163.80554   -204.45214    41.435744    41.435744    82.871488 
   11600    1099.6018   -24706.884   -25843.819   -89.502607    75.475713   -363.80978    19.826249    41.435099    41.435099    82.870197 
   11700    1090.2804    -24706.23   -25833.528    130.81532    956.80215   -480.76192    -83.59426    41.433894    41.433894    82.867787 
   11800     1098.429   -24705.491   -25841.214   -89.578047    133.26839   -777.97955    375.97703    41.433429    41.433429    82.866858 
   11900    1092.8733   -24704.887   -25834.865    72.792474    722.39918   -418.02154   -86.000217    41.432166    41.432166    82.864331 
   12000    1094.5132   -24704.306    -25835.98     288.3814    375.14708   -48.856602    538.85371    41.431215    41.431215    82.862429 
   12100     1106.331   -24703.774   -25847.667   -134.39306    320.03105   -465.04483    -258.1654    41.431211    41.431211    82.862423 
   12200    1105.7314   -24703.305   -25846.579   -67.869382   -289.17263    354.44048     -268.876    41.431605    41.431605    82.863209 
   12300    1104.0606   -24702.941   -25844.487   -55.238566   -817.71136     208.4171    443.57856    41.432299    41.432299    82.864599 
   12400    1106.1594   -24702.638   -25846.353   -169.65643   -180.50238    93.287967   -421.75487    41.433333    41.433333    82.866666 
   12500    1096.2277   -24702.298   -25835.745    18.838781    219.35062   -106.95493    -55.87935    41.434887    41.434887    82.869773 
   12600    1101.8271   -24701.916   -25841.153   -175.67701   -278.21236   -451.20229    202.38363    41.436503    41.436503    82.873006 
   12700    1083.5298    -24701.55   -25821.868    131.69459    219.35847    179.50696   -3.7816503    41.437667    41.437667    82.875334 
   12800    1094.0171   -24701.193   -25832.354   -28.484244    153.35634   -195.72357   -43.085497     41.43807     41.43807    82.876141 
   12900    1110.3961   -24700.895   -25848.991    -408.9538   -379.74262   -74.803778   -772.31501    41.437472    41.437472    82.874943 
   13000     1106.922   -24700.599   -25845.104   -184.54872   -83.387152    328.34815   -798.60716    41.436407    41.436407    82.872813 
   13100    1093.1313   -24700.312   -25830.557    125.07432   -150.20307    511.38689    14.039152    41.435164    41.435164    82.870328 
   13200     1095.652   -24699.997   -25832.848    95.541913    101.33683    277.68218    -92.39327    41.434194    41.434194    82.868388 
   13300    1097.4704   -24699.792   -25834.524    135.51997   -163.47397     318.7906    251.24329    41.432974    41.432974    82.865949 
   13400    1089.8915    -24699.63   -25826.526    433.81491    513.57703    546.40985    241.45785    41.432181    41.432181    82.864363 
   13500    1097.5595   -24699.478   -25834.301    180.19482    53.353374    74.196797    413.03428    41.432198    41.432198    82.864397 
   13600    1093.0644   -24699.277   -25829.453    191.02089   -215.23704    403.65851    384.64118    41.433167    41.433167    82.866333 
   13700    1107.6538   -24699.135   -25844.396   -199.54544   -188.44431   -290.40302     -119.789    41.434339    41.434339    82.868679 
   13800    1099.1185   -24699.091   -25835.527    137.80665    272.89276   -302.09874    442.62594     41.43523     41.43523    82.870459 
   13900    1097.3149   -24699.058   -25833.629    157.08168    194.61019    269.46205    7.1728082     41.43673     41.43673    82.873459 
   14000    1099.5508   -24698.967    -25835.85   -80.358659    143.85971    45.177382   -430.11306     41.43881     41.43881    82.877621 
   14100    1105.9807   -24698.866   -25842.397    -434.6587   -55.566207   -780.68238    -467.7275    41.440319    41.440319    82.880637 
   14200      1099.49   -24698.793   -25835.613    -85.79367   -211.68794    83.508127    -129.2012    41.440407    41.440407    82.880813 
   14300    1095.8226   -24698.815   -25831.843    82.214965   -115.98414     211.7282    150.90083    41.439354    41.439354    82.878708 
   14400    1106.9419   -24698.826   -25843.351   -160.26631   -326.42442    233.59539   -387.96989    41.437981    41.437981    82.875962 
   14500    1099.3055   -24698.874   -25835.503    18.242404    104.77211   -280.64121    230.59631    41.436075    41.436075     82.87215 
   14600    1094.7482   -24698.881   -25830.798    223.50814    200.84437    652.34678   -182.66673     41.43451     41.43451     82.86902 
   14700    1104.0651   -24698.942   -25840.492    10.298704    -592.7162    1191.1883     -567.576    41.433509    41.433509    82.867017 
   14800    1091.5641   -24699.063   -25827.688    313.18368    413.09662     -122.073    648.52741    41.432875    41.432875     82.86575 
   14900     1097.878   -24699.188   -25834.341    74.784935   -460.50712    396.02157    288.84035    41.432957    41.432957    82.865913 
   15000    1110.2702   -24699.206   -25847.172   -211.00329   -173.57407   -151.35223   -308.08356    41.434073    41.434073    82.868147 
   15100    1095.7484   -24699.244   -25832.195    98.052232    356.42513   -449.82319    387.55475    41.435452    41.435452    82.870904 
   15200    1098.3372   -24699.195   -25834.823     57.77462    116.65325    592.70506   -536.03445    41.437259    41.437259    82.874519 
   15300    1104.5178   -24699.175   -25841.193   -317.21399   -618.00629   -673.37373    339.73805    41.438387    41.438387    82.876775 
   15400    1107.0539   -24699.116   -25843.757   -376.41577    -782.4814     364.6238    -711.3897    41.438691    41.438691    82.877381 
   15500    1099.3318   -24699.066   -25835.722   -46.527186   -644.07862    262.30166    242.19541    41.437985    41.437985    82.875969 
   15600    1098.1925   -24699.043   -25834.522   -60.005514   -1016.1244    416.07921    420.02865    41.436711    41.436711    82.873422 
   15700    1108.7629    -24699.04   -25845.447   -198.92824   -667.45345   -68.226015    138.89476    41.435114    41.435114    82.870228 
   15800    1093.2319    -24699.02    -25829.37    284.77116    395.71743    159.55731    299.03874    41.433779    41.433779    82.867558 
   15900    1112.6736   -24699.041   -25849.492   -166.41781   -473.37456    439.31167   -465.19056    41.432973    41.432973    82.865945 
   16000    1101.6237   -24699.084    -25838.11    154.00063     540.4934    294.27923   -372.77073    41.432748    41.432748    82.865497 
   16100    1112.4173   -24699.106   -25849.292   -262.12583   -629.42558    137.51126   -294.46317    41.433195    41.433195    82.866389 
   16200    1097.1632    -24699.12   -25833.534    226.41635    848.45333    151.60678   -320.81108    41.434011    41.434011    82.868023 
   16300    1107.1615   -24699.102   -25843.854     -260.947   -809.23756   -419.18756    445.58413    41.435655    41.435655     82.87131 
   16400    1105.9479    -24699.06   -25842.556   -172.30767    562.79252   -624.89764   -454.81788    41.437548    41.437548    82.875096 
   16500    1093.1454   -24698.959   -25829.218    97.346899    489.62451    328.58482   -526.16863    41.439412    41.439412    82.878825 
   16600    1092.2125   -24698.907   -25828.202   -82.096902   -337.88663    -24.35234    115.94826    41.440011    41.440011    82.880022 
   16700    1109.1539   -24698.757   -25845.568   -466.07393   -180.59874    151.19013   -1368.8132    41.439993    41.439993    82.879987 
   16800    1108.1055   -24698.615   -25844.343   -392.27185   -415.04057   -445.94061   -315.83438    41.438935    41.438935     82.87787 
   16900    1101.8383   -24698.557   -25837.804   -43.230132   -132.09123   -190.88927     193.2901    41.436642    41.436642    82.873284 
   17000    1100.1278   -24698.512   -25835.991   -120.28419    113.12704   -171.67652   -302.30309    41.434332    41.434332    82.868664 
   17100    1111.7514    -24698.46   -25847.957   -14.052558   -538.50334    339.23217     157.1135     41.43218     41.43218    82.864359 
   17200    1095.7435   -24698.434    -25831.38    251.41772    569.90165    436.74967   -252.39817    41.431023    41.431023    82.862046 
   17300    1106.3639   -24698.516   -25842.443    145.09889   -376.78265   -446.68588    1258.7652    41.430031    41.430031    82.860062 
   17400    1103.6302   -24698.613   -25839.714    229.32153   -240.68747    650.59747    278.05459    41.430155    41.430155    82.860311 
   17500     1087.907   -24698.753   -25823.596    437.79905    74.379457    660.66839     578.3493    41.431305    41.431305     82.86261 
   17600    1110.5052   -24698.833   -25847.042   -222.48216   -1105.9923    623.03181   -184.48602    41.433735    41.433735    82.867469 
   17700    1108.5751   -24698.903   -25845.116   -268.77552   -854.71075    330.44494   -282.06074    41.436496    41.436496    82.872993 
   17800    1097.7777   -24699.005   -25834.054   -357.56219    108.10281   -968.22702   -212.56236    41.438684    41.438684    82.877369 
   17900    1098.8112   -24699.044   -25835.162   -123.67766   -547.76002    607.21823   -430.49118     41.43999     41.43999     82.87998 
   18000    1101.9517   -24699.077   -25838.442   -281.43334    75.334876   -48.477586   -871.15731    41.440115    41.440115    82.880231 
   18100    1090.7987   -24699.109   -25826.942    46.674319   -625.98409    726.40345    39.603601    41.438903    41.438903    82.877806 
   18200    1108.0728    -24699.08   -25844.774   -335.97148   -571.76658   -203.58446   -232.56341    41.437225    41.437225    82.874451 
   18300    1113.9304   -24699.066   -25850.816   -310.99279     50.40146   -641.60212   -341.77772    41.434972    41.434972    82.869945 
   18400    1103.3732   -24699.005    -25839.84     1.687607    285.15063   -310.17593     30.08812    41.433096    41.433096    82.866192 
   18500    1097.9881   -24698.984   -25834.251    197.90677   -641.72959    690.36066    545.08925    41.431837    41.431837    82.863674 
   18600    1103.2415   -24699.042    -25839.74    143.37201    9.0599948    121.13616    299.91987    41.431302    41.431302    82.862604 
   18700    1108.0671   -24699.134   -25844.822   -35.488548    313.61512    -17.13582   -402.94494    41.431537    41.431537    82.863074 
   18800    1083.9217   -24699.254   -25819.977    602.28491    715.15489    576.47395    515.22588    41.432423    41.432423    82.864845 
   18900    1104.7339   -24699.283   -25841.524    -74.59881   -85.608545    3.9751414   -142.16303    41.434692    41.434692    82.869383 
   19000    1112.4275    -24699.29   -25849.487    -378.7804   -764.76522    211.27026   -582.84624    41.437097    41.437097    82.874193 
   19100    1091.6334    -24699.33   -25828.026    51.104806   -115.73433    237.01013    32.038616    41.438933    41.438933    82.877866 
   19200    1097.9537   -24699.318   -25834.549    7.7185965    65.369278    655.03374   -697.24723    41.440156    41.440156    82.880313 
   19300    1097.0588   -24699.308   -25833.614   -259.25372   -233.15183   -354.04979   -190.55954    41.440397    41.440397    82.880793 
   19400    1101.1739   -24699.341   -25837.902   -200.98201   -241.15235   -21.196004   -340.59769    41.438846    41.438846    82.877691 
   19500    1104.5566   -24699.283   -25841.341   -189.43357    261.35647    -728.9652   -100.69198    41.436802    41.436802    82.873604 
   19600    1105.2046   -24699.197   -25841.925   -181.75477   -343.42666   -350.95658    149.11894    41.434839    41.434839    82.869677 
   19700    1104.0605   -24699.176   -25840.721    15.269372    283.11547   -327.35968    90.052325    41.432544    41.432544    82.865088 
   19800    1089.4702    -24699.15    -25825.61    577.09451    917.99903   -361.02175    1174.3062    41.431233    41.431233    82.862466 
   19900    1104.8298   -24699.156   -25841.497    113.72925    305.20422   -229.75757    265.74111    41.431418    41.431418    82.862835 
   20000    1115.8675   -24699.225   -25852.979   -196.48885    69.968897   -542.58872   -116.84672     41.43245     41.43245      82.8649 
   20100     1088.546   -24699.366    -25824.87    337.59348    632.69656   -124.54514    504.62901    41.433712    41.433712    82.867423 
   20200    1099.4059   -24699.431   -25836.164   -21.892341    212.94915   -499.05487     220.4287    41.435753    41.435753    82.871506 
   20300    1110.7759   -24699.457   -25847.946   -439.59519    -438.0937   -799.27451   -81.417374     41.43788     41.43788     82.87576 
   20400    1091.4917   -24699.464   -25828.014    62.496224     374.8883   -241.37636    53.976732    41.439329    41.439329    82.878659 
   20500     1092.142   -24699.433   -25828.655   -1.0129439   -123.12497   -360.06104    480.14717    41.440039    41.440039    82.880078 
   20600    1105.6433   -24699.391   -25842.573   -381.21272   -617.15563   -692.44228    165.95974    41.439745    41.439745     82.87949 
   20700    1104.9712   -24699.353    -25841.84   -211.53731    66.543644   -645.22933   -55.926236    41.438268    41.438268    82.876535 
   20800    1097.6014    -24699.35   -25834.217    92.614856    326.91432    57.998574   -107.06832    41.436003    41.436003    82.872005 
   20900    1096.0385   -24699.246   -25832.497    249.70404    4.4310297    458.75985    285.92124    41.434587    41.434587    82.869175 
   21000    1094.1414   -24699.145   -25830.435    245.69944    255.92385    705.87027    -224.6958    41.433974    41.433974    82.867948 
   21100     1099.409   -24699.038   -25835.774    120.40205    546.80006   -3.8745064    -181.7194    41.434068    41.434068    82.868136 
   21200    1104.7362   -24699.046    -25841.29   -119.16845   -233.08154   -244.20966    119.78585    41.434046    41.434046    82.868092 
   21300    1098.3228   -24699.135   -25834.748    139.47872    242.86696    195.53959   -19.970402    41.433685    41.433685    82.867369 
   21400    1105.8129   -24699.243     -25842.6   -217.44116   -405.05289   -281.55753     34.28695     41.43346     41.43346    82.866919 
   21500    1083.2494   -24699.395   -25819.423    561.74199    459.64979   -155.07509    1380.6513    41.433252    41.433252    82.866505 
   21600    1101.0727   -24699.507   -25837.963   -36.956196   -8.0848582   -639.06129    536.27756    41.434093    41.434093    82.868186 
   21700     1097.291    -24699.59   -25834.136    11.576745      209.395   -750.38428    575.71952    41.435157    41.435157    82.870314 
   21800    1094.5714   -24699.608   -25831.342    51.389712    677.34562   -345.06015   -178.11633    41.436194    41.436194    82.872387 
   21900     1106.557   -24699.699   -25843.826   -209.54197    385.50893   -800.80554    -213.3293    41.436342    41.436342    82.872685 
   22000    1094.8535   -24699.838   -25831.864    87.896961   -16.977507    128.58348    152.08491    41.435704    41.435704    82.871408 
   22100      1095.54   -24699.936   -25832.671    72.111564    92.609302   -164.69801     288.4234    41.434943    41.434943    82.869885 
   22200    1088.6812    -24699.94   -25825.584    317.06944    690.12448    270.64768   -9.5638422    41.434559    41.434559    82.869118 
   22300    1099.0688   -24699.893   -25836.277   -63.773041   -171.66658    252.94783   -272.60038    41.434748    41.434748    82.869496 
   22400    1100.8023   -24699.857   -25838.034   -25.961267    330.46509    325.01321    -733.3621    41.434695    41.434695     82.86939 
   22500    1097.0011   -24699.887   -25834.133    80.403454   -321.83902    180.99567    382.05372    41.434192    41.434192    82.868385 
   22600    1104.1154    -24699.89   -25841.492    -16.55058     431.3659    124.43893   -605.45657    41.433874    41.433874    82.867748 
   22700    1101.6083   -24699.846   -25838.856   -72.825914    -80.05248    436.45049   -574.87576    41.433937    41.433937    82.867875 
   22800    1092.1132   -24699.827   -25829.019    179.18686    -409.5256    147.74375    799.34243     41.43382     41.43382    82.867641 
   22900    1099.0448   -24699.776   -25836.136    58.181497    130.91106   -252.43187     296.0653    41.434061    41.434061    82.868122 
   23000    1094.5945    -24699.77   -25831.528    88.915847   -31.252097    -151.8522    449.85184     41.43421     41.43421     82.86842 
   23100    1103.0283   -24699.735   -25840.213    1.5456535   -27.298979    -253.1308    285.06674    41.434908    41.434908    82.869817 
   23200    1096.6147   -24699.665   -25833.512    27.208629   -283.20086    -8.456209    373.28296    41.436083    41.436083    82.872166 
   23300    1087.9878   -24699.522   -25824.449    171.06096    -293.3008    341.98119    464.50248    41.437662    41.437662    82.875324 
   23400    1097.2941   -24699.322   -25833.871   -157.55427    -343.8601   -552.45054    423.64785    41.439179    41.439179    82.878358 
   23500    1099.9344   -24699.112   -25836.392   -247.57838   -1079.0295   -197.02055    533.31489    41.439802    41.439802    82.879605 
   23600    1093.3046    -24698.96   -25829.385    22.316996   -341.85565   -174.64022    583.44686    41.439043    41.439043    82.878085 
   23700    1097.4873   -24698.828   -25833.578    58.183833   -342.48788    161.85559    355.18379    41.437487    41.437487    82.874973 
   23800    1108.1635   -24698.694   -25844.482    -228.0761   -382.46837   -133.80174    -167.9582    41.435699    41.435699    82.871398 
   23900     1116.943   -24698.641   -25853.506   -290.87391   -829.45449   -473.73165    430.56441    41.433722    41.433722    82.867443 
   24000    1094.7239   -24698.776   -25830.668    366.67156    434.04356    473.10381    192.86732    41.431394    41.431394    82.862788 
   24100     1103.941   -24698.888    -25840.31    204.55235    125.50283    677.09491   -188.94067     41.43038     41.43038    82.860761 
   24200     1100.696   -24698.977   -25837.044    191.70001    388.11791   -206.51151    393.49362     41.43097     41.43097     82.86194 
   24300     1088.251   -24699.022   -25824.221    502.67078    53.222758    52.243099    1402.5465    41.432995    41.432995    82.865989 
   24400    1098.6584   -24699.082   -25835.042    12.309483   -160.70637    633.96453   -436.32971    41.435927    41.435927    82.871855 
   24500    1099.8785   -24699.113   -25836.335   -229.88118    -790.6077    -563.9407    664.90485    41.438781    41.438781    82.877561 
   24600    1107.8222   -24699.139   -25844.574    -481.3712   -391.29074   -1007.5493   -45.273597    41.440471    41.440471    82.880942 
   24700    1098.0598   -24699.205   -25834.546   -186.56794   -287.20392    40.457935   -312.95784    41.440292    41.440292    82.880584 
   24800    1098.8442   -24699.177   -25835.329   -187.16198   -458.74112   -918.25712    815.51231    41.439514    41.439514    82.879028 
   24900    1103.1906   -24699.101   -25839.747   -116.80263    133.57751    240.04333   -724.02871    41.438334    41.438334    82.876669 
   25000    1098.9996   -24699.133   -25835.446    70.319445   -108.56887   -176.57561    496.10281    41.436197    41.436197    82.872395 
   25100    1101.9394    -24699.22   -25838.572   -67.835356   -470.18533    74.261506    192.41776    41.433597    41.433597    82.867195 
   25200    1097.8576   -24699.314   -25834.446    452.97566   -23.482621    908.07179    474.33781    41.430882    41.430882    82.861764 
   25300    1087.4292   -24699.399   -25823.748    603.37084    143.05969    1459.5062    207.54668    41.429484    41.429484    82.858967 
   25400    1104.4114   -24699.421   -25841.329    105.25219    230.84143   -307.82944    392.74459    41.430107    41.430107    82.860214 
   25500    1095.0595   -24699.427   -25831.666    326.10222    719.52365    164.20524    94.577774    41.431879    41.431879    82.863758 
   25600    1109.3209   -24699.381   -25846.366   -177.88106    178.50332   -693.36791   -18.778583    41.434759    41.434759    82.869518 
   25700    1092.7849   -24699.404   -25829.291    83.162561    164.50982   -458.77292    543.75078      41.4372      41.4372    82.874399 
   25800    1099.8806   -24699.388   -25836.612   -189.93866   -571.29778    240.34129   -238.85948    41.439378    41.439378    82.878756 
   25900    1100.5557   -24699.357   -25837.278   -271.91649   -488.92366   -94.191876   -232.63394     41.44088     41.44088     82.88176 
   26000    1102.5911   -24699.282   -25839.308   -462.48835   -183.50786   -840.21846   -363.73873    41.441357    41.441357    82.882713 
   26100    1089.7604   -24699.224   -25825.984   -22.811737     136.8072   -145.25899    -59.98342    41.440243    41.440243    82.880486 
   26200    1100.8541    -24699.11    -25837.34   -260.48143    336.51347    29.716826   -1147.6746    41.438527    41.438527    82.877054 
   26300    1098.9387   -24699.011   -25835.261     76.11157   -102.08159   -369.08855    699.50484    41.436109    41.436109    82.872218 
   26400    1096.6924   -24698.951   -25832.878    134.14855    221.52285   -338.46598    519.38879    41.433423    41.433423    82.866846 
   26500    1106.5492   -24698.905   -25843.024   -95.567956   -2.1318378    -528.9902    244.41817    41.430957    41.430957    82.861913 
   26600    1090.8058   -24698.821   -25826.662    530.99504    56.749417   -89.179645    1625.4153    41.429874    41.429874    82.859748 
   26700    1103.8894   -24698.734   -25840.103     74.37639    216.25058   -414.95019    421.82878    41.430708    41.430708    82.861416 
   26800    1105.6195   -24698.659   -25841.816   -55.016612    238.61463   -211.51593   -192.14853    41.432591    41.432591    82.865183 
   26900    1102.3058   -24698.582   -25838.313   -38.468751    123.89184   -681.41176    442.11367    41.435146    41.435146    82.870293 
   27000    1106.8172   -24698.542   -25842.938   -236.84748   -345.27851    -131.1474   -234.11654    41.437502    41.437502    82.875004 
   27100    1097.2807   -24698.502   -25833.037    39.398383   -74.300316    321.72325   -129.22778    41.439309    41.439309    82.878618 
   27200    1101.9695   -24698.333   -25837.716   -273.59512   -600.23355    111.37929   -331.93109    41.441226    41.441226    82.882452 
   27300    1090.1113   -24698.078   -25825.201   -10.245183   -180.27939   -222.59855     372.1424     41.44282     41.44282     82.88564 
   27400    1093.4274    -24697.87   -25828.421   -23.128543    609.70924    26.442058   -705.53693     41.44293     41.44293     82.88586 
   27500    1103.9388   -24697.695   -25839.115   -144.82607   -1085.1011     485.2115    165.41143    41.441739    41.441739    82.883478 
   27600    1100.6595    -24697.58   -25835.609   -73.225021   -190.92114   -64.932967    36.179041    41.439447    41.439447    82.878895 
   27700     1103.996   -24697.469   -25838.947   -77.133421     302.0763   -32.045261    -501.4313    41.436845    41.436845     82.87369 
   27800    1103.0586   -24697.371    -25837.88    82.071282    421.03526   -397.63951    222.81809    41.434553    41.434553    82.869107 
   27900     1112.314   -24697.271    -25847.35   -116.04629    -40.47483   -77.719857   -229.94419     41.43317     41.43317    82.866341 
   28000    1096.4004   -24697.225    -25830.85    295.14228    1029.8682    -577.0574    432.61604    41.432442    41.432442    82.864884 
   28100    1109.8806     -24697.2   -25844.764   -101.51283    491.74349   -618.02608   -178.25592    41.432936    41.432936    82.865871 
   28200    1093.8863    -24697.22   -25828.245    280.84664    464.71759   -220.51403    598.33636    41.434186    41.434186    82.868372 
   28300    1100.4261   -24697.172   -25834.959   -0.9268645    95.001369   -221.69684    123.91488    41.436595    41.436595    82.873191 
   28400    1097.4016   -24697.089    -25831.75   -23.042206    -6.304357   -464.32377    401.50151     41.43928     41.43928    82.878559 
   28500    1101.3419   -24697.029   -25835.763   -290.01625   -396.93002   -649.55654     176.4378    41.441225    41.441225    82.882449 
   28600    1088.3522   -24696.955   -25822.259    96.125548    470.56672   -225.95361    43.763537    41.441737    41.441737    82.883474 
   28700    1100.3059   -24696.889   -25834.552   -237.54802    98.695622    -468.5711   -342.76858    41.441335    41.441335     82.88267 
   28800    1101.5807   -24696.795   -25835.776   -183.11235    282.10634   -716.74362   -114.69976    41.440127    41.440127    82.880254 
   28900    1106.5286   -24696.705   -25840.803    -149.3345   -125.75978    407.58817    -729.8319    41.438116    41.438116    82.876232 
   29000    1097.2472   -24696.675   -25831.176    63.676644    95.722171    313.77576     -218.468     41.43565     41.43565    82.871301 
   29100    1089.1202   -24696.629   -25822.727    349.88305    495.52136    888.33099    -334.2032    41.433803    41.433803    82.867606 
   29200    1112.3609   -24696.564   -25846.691   -144.54071    148.97865   -40.056899   -542.54388    41.433023    41.433023    82.866047 
   29300    1095.9155   -24696.622   -25829.746    276.00854    60.850442    753.20671    13.968459    41.432474    41.432474    82.864947 
   29400    1083.0068   -24696.646   -25816.423    587.35385    501.28993    876.89961    383.87201     41.43296     41.43296    82.865921 
   29500    1106.1353   -24696.509     -25840.2   -87.421653  -0.31550307   -397.47142    135.52196    41.434994    41.434994    82.869989 
   29600    1095.7449   -24696.482   -25829.429    95.318066    167.31308    386.00953   -267.36841    41.436395    41.436395     82.87279 
   29700    1094.0924   -24696.451    -25827.69    7.8597051    180.21438   -384.32004    227.68478    41.437875    41.437875     82.87575 
   29800    1098.5921   -24696.377   -25832.268   -46.729848   -629.30778    165.30691    323.81132    41.439064    41.439064    82.878127 
   29900    1107.4969   -24696.322   -25841.421   -390.86234   -413.58576   -63.484363    -695.5169    41.439919    41.439919    82.879838 
   30000    1097.6212   -24696.403    -25831.29   -144.87434   -270.06036   -775.65775    611.09508    41.439289    41.439289    82.878577 
   30100    1097.5958   -24696.496   -25831.358    3.1631536     29.86026   -62.862437    42.491638    41.437831    41.437831    82.875663 
   30200     1106.555    -24696.56   -25840.684   -75.214663   -517.45078     507.4703   -215.66351    41.436329    41.436329    82.872658 
   30300    1099.6664   -24696.635   -25833.637    114.65263    277.80284    216.39129   -150.23623    41.435171    41.435171    82.870342 
   30400    1098.0717   -24696.779   -25832.133    152.34977    355.65594    -414.7326    516.12598    41.434245    41.434245    82.868489 
   30500     1102.946   -24696.917    -25837.31    61.598276    523.44176   -145.99324   -192.65369    41.433967    41.433967    82.867934 
   30600    1095.4607   -24697.066   -25829.719    258.48778    508.09851    141.25196    126.11288    41.434154    41.434154    82.868309 
   30700    1102.6233   -24697.159   -25837.218   -60.924415    511.44177    107.60272   -801.81773    41.435098    41.435098    82.870196 
   30800    1111.3381   -24697.231   -25846.301   -414.90591   -738.66893   -150.61435   -355.43445    41.436532    41.436532    82.873063 
   30900    1097.8478   -24697.318    -25832.44    21.429033   -307.93824   -1.9509731    374.17631    41.437428    41.437428    82.874856 
   31000    1107.5055   -24697.416   -25842.524   -290.05283   -54.741624   -897.75957    82.342697    41.438003    41.438003    82.876005 
   31100    1104.7893   -24697.535   -25839.834   -275.94941   -639.81752   -112.33545   -75.695254    41.437869    41.437869    82.875737 
   31200    1105.0639   -24697.667    -25840.25   -183.50014    234.05798   -61.943887    -722.6145    41.436923    41.436923    82.873847 
   31300     1078.817   -24697.793   -25813.238    616.55918    538.09117    890.98876     420.5976     41.43578     41.43578    82.871561 
   31400    1127.9694    -24697.84   -25864.106   -544.72296   -155.63126   -546.92718   -931.61044    41.435588    41.435588    82.871175 
   31500    1097.9388   -24698.049   -25833.264    152.00366   -144.67344    828.11553   -227.43112    41.434722    41.434722    82.869444 
   31600    1101.6628   -24698.103   -25837.169    50.102778   -182.44365   -176.69081     509.4428    41.435103    41.435103    82.870206 
   31700    1094.5453    -24698.21   -25829.917    222.12706      603.008   -121.20229    184.57546    41.435542    41.435542    82.871084 
   31800    1109.2625   -24698.355    -25845.28   -186.86289   -123.73942   -433.81177   -3.0374791    41.435836    41.435836    82.871673 
   31900    1098.5447   -24698.544   -25834.386    32.740371    148.10593    238.08892   -287.97374    41.435803    41.435803    82.871607 
   32000    1106.2258   -24698.699   -25842.484   -274.58703    150.49097   -535.43898   -438.81308    41.436054    41.436054    82.872108 
   32100    1103.6406   -24698.823   -25839.935   -153.68341    263.02351   -105.04558   -619.02816    41.436033    41.436033    82.872065 
   32200    1098.9408   -24698.944   -25835.196    2.5073102   -442.63246    151.88059     298.2738    41.435448    41.435448    82.870896 
   32300    1104.8791    -24698.98   -25841.372   -166.75515   -482.02519   -438.81295    420.57268    41.435267    41.435267    82.870534 
   32400    1095.8896   -24699.012   -25832.109    145.64263   -368.72756    933.29359   -127.63813    41.435024    41.435024    82.870048 
   32500     1097.238   -24699.125   -25833.617   -48.004645   -528.33468    311.79069     72.53006     41.43444     41.43444     82.86888 
   32600    1095.8708    -24699.22   -25832.298    205.48338    80.246864   -4.4360191    540.63929    41.433876    41.433876    82.867752 
   32700    1091.6343   -24699.325   -25828.022    381.49544    264.06801    528.58746    351.83085    41.433746    41.433746    82.867493 
   32800    1092.5235    -24699.41   -25829.026    189.27482    587.99655   -268.97255    248.80046    41.434141    41.434141    82.868282 
   32900    1104.4937   -24699.471   -25841.464   -64.426576    339.46824    -122.8943   -409.85367    41.435003    41.435003    82.870005 
   33000    1086.3033   -24699.571   -25822.756    281.60043   -215.58357    660.22928    400.15557    41.435766    41.435766    82.871531 
   33100    1098.8294    -24699.63   -25835.766   -71.028575   -646.24492    296.27776    136.88143    41.436542    41.436542    82.873084 
   33200    1092.3632   -24699.676   -25829.127    66.269478     588.9749   -683.04428    292.87781    41.436707    41.436707    82.873414 
   33300    1094.9236   -24699.701   -25831.799    55.473328   -153.52081    627.21326   -307.27247    41.436486    41.436486    82.872973 
   33400     1087.644   -24699.679   -25824.251    278.74755   -550.05783    1006.2139    380.08655    41.436079    41.436079    82.872157 
   33500    1115.5755   -24699.684   -25853.135   -431.43731   -323.38148   -624.57444   -346.35602    41.435276    41.435276    82.870553 
   33600     1102.396   -24699.715    -25839.54   -17.477473    215.44789   -614.04849    346.16817    41.434188    41.434188    82.868376 
   33700    1103.3107   -24699.789   -25840.559    97.331191    41.130537    154.03408    96.828955    41.433344    41.433344    82.866687 
   33800    1091.8617   -24699.872   -25828.804    224.17673    499.15653   -113.71175    287.08541    41.433105    41.433105     82.86621 
   33900    1105.1271   -24699.842    -25842.49   -152.72101   -653.24084    119.75528    75.322516    41.434017    41.434017    82.868034 
   34000    1102.1681   -24699.878   -25839.467   -86.979395   -349.70648    172.69153   -83.923238    41.434811    41.434811    82.869622 
   34100     1107.226   -24699.956   -25844.775   -170.66823   -860.69537   -198.74412    547.43481    41.435186    41.435186    82.870372 
   34200    1089.8718   -24700.013   -25826.888    98.271854   -639.36879    120.76184    813.42252    41.435443    41.435443    82.870886 
   34300    1092.6504   -24699.974   -25829.722    48.498494    539.83512   -125.02595   -269.31369    41.435846    41.435846    82.871691 
   34400    1095.4931   -24699.879   -25832.567     2.837996    59.689904   -301.82369    250.64777    41.436117    41.436117    82.872233 
   34500    1092.9047   -24699.672   -25829.683    62.378755    420.55485   -187.14145   -46.277139    41.436485    41.436485    82.872971 
   34600    1105.0697   -24699.491    -25842.08   -235.91107   -714.00886    -327.3036    333.57926    41.436279    41.436279    82.872557 
   34700     1111.333   -24699.439   -25848.503   -234.26619   -325.42636   -218.98147   -158.39075    41.435068    41.435068    82.870135 
   34800    1109.4856   -24699.421   -25846.576   -209.38287    37.385181   -506.83962   -158.69418    41.433886    41.433886    82.867772 
   34900    1098.7547   -24699.334   -25835.394    240.58909    549.73738   -59.953793    231.98369    41.433652    41.433652    82.867304 
   35000    1090.1682   -24699.238    -25826.42    375.30751    405.52252    414.03199    306.36803    41.434218    41.434218    82.868435 
   35100    1115.8888   -24699.102   -25852.877   -377.28864   -133.57356   -607.31979   -390.97257      41.4354      41.4354      82.8708 
   35200    1096.7019   -24699.057   -25832.994   -1.8307334    163.00021    -394.2981     225.8057    41.435813    41.435813    82.871625 
   35300    1094.1248   -24698.993   -25830.266    21.646699   -154.77064   -53.106139    272.81688    41.435977    41.435977    82.871955 
   35400    1108.3469   -24698.857   -25844.835   -322.73765    114.43615   -967.35883   -115.29028    41.436319    41.436319    82.872638 
   35500    1098.8828   -24698.718    -25834.91   -1.2996306   -461.87292   -363.87188    821.84591    41.436425    41.436425     82.87285 
   35600    1110.8964   -24698.519   -25847.132   -372.94062   -177.41337   -717.45028   -223.95822    41.436846    41.436846    82.873691 
   35700    1098.8456   -24698.409   -25834.563   -3.1884717   -33.489934    258.85636   -234.93184     41.43622     41.43622     82.87244 
   35800    1096.1325   -24698.327   -25831.676    16.603823   -9.1739044   -363.42515    422.41053    41.435392    41.435392    82.870783 
   35900    1104.3284   -24698.163   -25839.986    -135.1327    480.80649   -201.01937   -685.18523    41.435008    41.435008    82.870016 
   36000    1091.2333   -24698.031   -25826.313    286.49579    370.58424    169.38837    319.51477    41.434614    41.434614    82.869227 
   36100    1111.9034   -24697.794   -25847.449   -192.35974    77.196184   -637.64733   -16.628079    41.435349    41.435349    82.870698 
   36200    1092.8642   -24697.698   -25827.667    224.14314    464.03098    79.610859    128.78759    41.435613    41.435613    82.871227 
   36300    1102.9243   -24697.692   -25838.063   -51.366494    559.30431   -706.63561   -6.7681806    41.435799    41.435799    82.871599 
   36400    1103.8441    -24697.69   -25839.011   -95.981786   -806.84472    476.95365    41.945707    41.436234    41.436234    82.872469 
   36500    1096.7086   -24697.725   -25831.669    97.083763    242.71597    12.665309    35.870013    41.436667    41.436667    82.873334 
   36600    1104.2198   -24697.783   -25839.493   -69.425811    -893.4035    113.56368    571.56239    41.437041    41.437041    82.874081 
   36700    1099.9822   -24697.859   -25835.187    62.188665   -140.32018     832.6436   -505.75742    41.437253    41.437253    82.874506 
   36800    1103.0617   -24697.936   -25838.449   -147.11855   -366.01184   -206.13728    130.79347     41.43741     41.43741    82.874819 
   36900    1098.9719   -24698.095   -25834.379   0.22292845    388.30192    -927.7188    540.08567      41.4369      41.4369      82.8738 
   37000    1104.0105   -24698.208   -25839.702     -252.602   -183.69222    85.200798   -659.31458    41.436575    41.436575    82.873149 
   37100    1087.4391   -24698.289   -25822.649    172.48571    59.886522    458.70313   -1.1325173     41.43565     41.43565      82.8713 
   37200    1092.0991   -24698.309   -25827.487     284.7421    1025.0092   -361.00145    190.21853    41.434633    41.434633    82.869267 
   37300    1105.2029    -24698.23   -25840.957    45.850806    66.581914    55.297885    15.672618    41.434381    41.434381    82.868761 
   37400    1098.8687   -24698.154   -25834.331    112.50809   -319.63219    255.32201    401.83446    41.434811    41.434811    82.869621 
   37500    1103.5115   -24698.145   -25839.123    -153.7889    381.60467   -524.11881   -318.85257     41.43515     41.43515      82.8703 
   37600    1094.9962   -24698.197   -25830.371    47.357367     517.3142    645.48031   -1020.7224    41.435081    41.435081    82.870161 
   37700    1104.9957   -24698.141   -25840.653   -167.24922    572.12652   -818.01726   -255.85693    41.435695    41.435695     82.87139 
   37800    1090.4241   -24698.091   -25825.537    216.47354    1085.7137   -311.66974   -124.62332    41.436095    41.436095    82.872191 
   37900    1095.0427   -24698.125   -25830.346    216.54043    296.95671    67.852984     284.8116    41.435828    41.435828    82.871657 
   38000    1096.9816   -24698.095   -25832.321    41.875923   -109.81405     147.2471    88.194721    41.435818    41.435818    82.871635 
   38100    1113.2385   -24698.037   -25849.072   -389.55393    60.546722   -231.91463   -997.29388    41.436121    41.436121    82.872243 
   38200    1098.6742    -24698.05   -25834.026    47.266899   -101.77079    338.83495   -95.263457     41.43611     41.43611     82.87222 
   38300    1086.0104   -24698.074   -25820.957    390.74167    515.22321    248.08082    408.92097    41.436542    41.436542    82.873084 
   38400     1104.112   -24698.072    -25839.67   -58.149678      130.537   -402.63569    97.649658    41.437529    41.437529    82.875058 
   38500    1096.5087     -24698.1   -25831.837    61.318735    -189.1663    26.051491    347.07102    41.438033    41.438033    82.876067 
   38600    1101.8388   -24698.012    -25837.26   -141.13757   -665.11637    191.89776     49.80591    41.439036    41.439036    82.878071 
   38700    1096.3889   -24697.908   -25831.522   -89.908616   -431.34628     353.4463   -191.82587    41.439505    41.439505     82.87901 
   38800    1094.9522   -24697.803   -25829.931    150.20467    543.13339    687.91671   -780.43608    41.438968    41.438968    82.877936 
   38900    1099.0477   -24697.671   -25834.033    26.378214   -340.70349     276.4696    143.36853    41.438229    41.438229    82.876459 
   39000     1100.217   -24697.534   -25835.106    11.646255    80.166877    178.77306   -224.00117    41.437164    41.437164    82.874328 
   39100    1103.2055   -24697.451   -25838.113   -108.67613   -220.08072     92.89044   -198.83812    41.435851    41.435851    82.871702 
   39200     1094.137   -24697.437   -25828.722    298.64203    557.81142    316.16971    21.944947     41.43412     41.43412     82.86824 
   39300    1086.4178   -24697.448   -25820.752    438.02211    67.657452    440.49393    805.91494    41.432662    41.432662    82.865323 
   39400    1099.5988   -24697.373   -25834.305    191.07063    205.30462    455.06775   -87.160476    41.432402    41.432402    82.864803 
   39500    1099.4808    -24697.38    -25834.19    190.06956    220.78369   -197.09731    546.52228    41.432513    41.432513    82.865027 
   39600    1098.2636   -24697.447   -25832.998    304.32791   -256.10899    758.49679    410.59593    41.433231    41.433231    82.866462 
   39700    1106.0491   -24697.515   -25841.117   -27.043671    73.934888    258.32301   -413.38891    41.434586    41.434586    82.869172 
   39800    1098.4103   -24697.572   -25833.275     202.4924    279.29089   -130.04345    458.22976    41.436412    41.436412    82.872825 
   39900    1110.0075   -24697.597   -25845.292   -339.00681   -256.52408   -717.14172    -43.35463    41.438714    41.438714    82.877428 
   40000     1093.414   -24697.669   -25828.206    108.13352   -121.86889    -300.5047    746.77415      41.4399      41.4399      82.8798 
   40100    1094.4437   -24697.723   -25829.325    -26.05256    14.372771    139.51326   -232.04371     41.44068     41.44068    82.881361 
   40200     1104.172   -24697.743   -25839.404    -222.9446    163.40049    -393.2046   -439.02969    41.440735    41.440735    82.881469 
   40300    1103.9118   -24697.765   -25839.157   -288.70517   -222.22118   -567.12307   -76.771254    41.439711    41.439711    82.879422 
   40400    1093.0442   -24697.726   -25827.882    232.89068    345.15954     435.1712   -81.658701    41.438227    41.438227    82.876455 
   40500    1098.4189   -24697.668   -25833.381   -148.12475   -692.80299    647.42601   -398.99726    41.436854    41.436854    82.873707 
   40600    1089.5112   -24697.712   -25824.214    391.43002    737.80651    148.38552    288.09803    41.434418    41.434418    82.868837 
   40700    1104.1892   -24697.763   -25839.441     120.7819    376.42769    41.857518   -55.939516    41.432535    41.432535     82.86507 
   40800    1113.5092    -24697.71   -25849.024    -138.4141   -249.35582    55.730767   -221.61725    41.432527    41.432527    82.865055 
   40900    1090.0734   -24697.692   -25824.776    319.19184   -24.424845    829.13356    152.86681     41.43328     41.43328    82.866559 
   41000    1099.9241    -24697.68   -25834.949    26.281125   -142.43137    281.73766   -60.462916    41.434808    41.434808    82.869615 
   41100    1102.1133   -24697.727   -25837.259   -128.67429    489.89272   -896.24424    20.328658    41.436335    41.436335    82.872669 
   41200    1110.8355   -24697.741   -25846.292   -354.49699    -602.0445   -739.91734    278.47088    41.437773    41.437773    82.875545 
   41300    1088.2774   -24697.843    -25823.07    286.35258    55.590125    328.96173    474.50588    41.438543    41.438543    82.877086 
   41400    1104.5743   -24697.893    -25839.97   -170.07799   -205.23432   -296.47023   -8.5294284    41.439602    41.439602    82.879204 
   41500    1103.9851   -24697.927   -25839.394   -235.50702    -272.1042   -402.94581   -31.471058    41.439899    41.439899    82.879797 
   41600    1104.4252   -24697.966   -25839.888   -254.60121   -97.687599    12.376718   -678.49276    41.439362    41.439362    82.878723 
   41700    1088.0074       -24698   -25822.947    207.24595    929.46019   -189.95887   -117.76346     41.43814     41.43814     82.87628 
   41800    1108.4392   -24697.985   -25844.057   -320.36615   -663.71399   -1417.1776    1119.7931    41.436523    41.436523    82.873045 
   41900    1097.8428   -24698.058   -25833.174    70.180648    257.12809    207.75041   -254.33656    41.433891    41.433891    82.867782 
   42000    1105.7843   -24698.044   -25841.372    140.70712    413.59396    69.794772   -61.267381    41.432066    41.432066    82.864133 
   42100    1105.6857   -24697.972   -25841.198    27.144726   -107.31029    90.996525    97.747941    41.431587    41.431587    82.863174 
   42200    1103.4366   -24697.843   -25838.744    149.63993   -84.015913    258.43666    274.49903    41.432304    41.432304    82.864609 
   42300    1097.1816   -24697.705   -25832.138    108.81921    154.67303   -391.80528    563.58988    41.434135    41.434135    82.868269 
   42400    1098.9466   -24697.554   -25833.812    105.21319   -496.40283    49.804195     762.2382    41.436219    41.436219    82.872439 
   42500    1110.9271   -24697.438   -25846.083   -371.27592   -323.98898    -583.2183   -206.62048    41.438214    41.438214    82.876429 
   42600    1106.5477   -24697.338   -25841.455   -340.13876   -257.27609   -897.86963    134.72943    41.439581    41.439581    82.879162 
   42700    1100.4177   -24697.244   -25835.023   -213.38652   -447.98155   -42.991861   -149.18613    41.440113    41.440113    82.880227 
   42800    1099.8064   -24697.178   -25834.325   -60.436573   -528.66872    223.85869    123.50032    41.439749    41.439749    82.879498 
   42900    1095.4572   -24697.123   -25829.773   -177.31859   -760.08744    603.56169   -375.43004    41.438703    41.438703    82.877406 
   43000    1092.1423   -24697.089   -25826.312    127.78869     182.8221    675.89062   -475.34665    41.436745    41.436745    82.873491 
   43100    1098.2224   -24697.064   -25832.573    130.20077    -299.3861    333.60346    356.38495    41.434786    41.434786    82.869572 
   43200    1110.8261   -24697.002   -25845.543   -62.544809   -733.05249    102.90573    442.51234    41.433786    41.433786    82.867571 
   43300    1104.3835   -24696.941   -25838.821    4.7243996   -134.52775    604.39118   -455.69023    41.433488    41.433488    82.866976 
   43400    1095.6282   -24696.888   -25829.715    208.81699    466.82771    16.678863    142.94441    41.433811    41.433811    82.867623 
   43500    1097.6717   -24696.775   -25831.714    134.59164   -279.84808    548.27458    135.34842    41.435036    41.435036    82.870072 
   43600    1087.3157   -24696.733   -25820.965    394.01117   -239.14484    834.28223    586.89611    41.436506    41.436506    82.873013 
   43700    1097.2535    -24696.68   -25831.187    43.468398    293.02576    236.14994   -398.77051    41.438403    41.438403    82.876807 
   43800    1097.9423   -24696.737   -25831.957   -46.328707   -90.468023   -211.83189     163.3138     41.43931     41.43931     82.87862 
   43900    1100.9531   -24696.838    -25835.17   -125.38709    124.71273    -515.7778    14.903805    41.439333    41.439333    82.878666 
   44000    1102.5326   -24696.982   -25836.948   -91.801546    100.86773    68.844393   -445.11676    41.438701    41.438701    82.877401 
   44100     1097.501    -24697.16   -25831.923    95.459353    14.544923    41.057429    230.77571    41.437496    41.437496    82.874992 
   44200     1103.848   -24697.232   -25838.557   -127.89431    195.90112    226.29298   -805.87702     41.43691     41.43691    82.873821 
   44300    1109.7033   -24697.311   -25844.691   -174.23837   -90.994753    217.74305   -649.46341      41.4365      41.4365    82.872999 
   44400    1105.2012   -24697.439   -25840.164   -236.14185   -8.8322423    32.777187   -732.37051    41.435973    41.435973    82.871945 
   44500    1087.4168   -24697.582   -25821.918    116.27756    224.79943    388.41666   -264.38339    41.435084    41.435084    82.870167 
   44600    1090.6934    -24697.65   -25825.375    340.63489    311.21475    236.28834    474.40156    41.434557    41.434557    82.869114 
   44700    1087.4301   -24697.637   -25821.988    447.70092    84.934611    802.18724    455.98091    41.434949    41.434949    82.869897 
   44800    1109.4952   -24697.532   -25844.697    -258.2209   -186.42258   -363.20824   -225.03188    41.436321    41.436321    82.872642 
   44900    1100.5593   -24697.465    -25835.39   -107.16238    -275.5668    63.235715   -109.15605    41.437254    41.437254    82.874507 
   45000    1091.5372   -24697.376   -25825.973    219.31465    52.551994    696.48342   -91.091453    41.437961    41.437961    82.875922 
   45100    1100.3011   -24697.191   -25834.849   -117.14459   -460.80825    107.80291    1.5715802    41.439169    41.439169    82.878338 
   45200     1113.306   -24697.027   -25848.132   -450.56313   -860.16869    87.948014    -579.4687    41.439794    41.439794    82.879588 
   45300     1097.315   -24696.986   -25831.556   -39.888205   -401.40643   -884.32869    1166.0705    41.439251    41.439251    82.878501 
   45400    1100.5296   -24696.969   -25834.864   -76.186275   -72.800539   -131.67035   -24.087932    41.438372    41.438372    82.876744 
   45500    1097.7602   -24696.954   -25831.986    133.02479    70.198572    317.28665    11.589157     41.43739     41.43739     82.87478 
   45600    1079.4596   -24696.957   -25813.066    506.62247    1077.4045    518.91958   -76.456643    41.436416    41.436416    82.872831 
   45700    1098.3364   -24696.963    -25832.59    69.053911      303.087    56.903709   -152.82897    41.435408    41.435408    82.870816 
   45800      1103.51    -24696.92   -25837.897    97.609926    324.40844    484.66059   -516.23925    41.434845    41.434845    82.869689 
   45900    1084.2117   -24696.934   -25817.957    620.87779    426.23577    487.92965    948.46793    41.434422    41.434422    82.868844 
   46000     1105.278   -24696.899   -25839.704     -30.8913   -842.23501   -493.75413    1243.3152    41.435312    41.435312    82.870624 
   46100    1099.1972   -24696.905   -25833.422    113.33168   -193.05612    93.746571    439.30458    41.436627    41.436627    82.873255 
   46200    1097.0965   -24696.902   -25831.247   -90.550935    518.76074   -62.547754   -727.86579    41.438368    41.438368    82.876737 
   46300    1104.5475   -24696.855   -25838.904   -27.722037   -408.05438      301.242    23.646268    41.440195    41.440195     82.88039 
   46400    1100.3031   -24696.825   -25834.485   -136.09053   -261.37569   -845.05924    698.16335    41.441539    41.441539    82.883079 
   46500    1091.9046   -24696.824   -25825.801    54.534969    379.96506   -82.758498   -133.60165    41.441697    41.441697    82.883394 
   46600    1095.1395   -24696.747   -25829.069   -15.308589    498.69774   -602.51114    57.887628    41.441497    41.441497    82.882994 
   46700     1077.943   -24696.629   -25811.171     370.5017    288.87064    654.80626    167.82821      41.4408      41.4408    82.881601 
   46800    1118.5135   -24696.477   -25852.967   -574.98431   -1320.6556   -450.03318    45.735841    41.439507    41.439507    82.879014 
   46900    1101.5461   -24696.432   -25835.377   -35.260532     36.13413    2.8825428   -144.79827    41.436771    41.436771    82.873542 
   47000    1089.8373   -24696.459   -25823.299     491.4043    877.23733    872.15387   -275.17829    41.433779    41.433779    82.867558 
   47100    1092.6972   -24696.461   -25826.258     487.8851    467.06871    419.41577    577.17083    41.432138    41.432138    82.864275 
   47200    1107.3296   -24696.475   -25841.401    8.4839868   -395.17802   -41.225498    461.85548    41.432081    41.432081    82.864161 
   47300    1105.5577   -24696.572   -25839.665    48.171248    118.43147   -298.57199    324.65426    41.432684    41.432684    82.865368 
   47400    1112.7156   -24696.663   -25847.158    -182.4949   -13.219769   -330.86268   -203.40226    41.434303    41.434303    82.868607 
   47500     1091.801   -24696.769   -25825.639    211.82554    83.369264   -346.05117    898.15854    41.436445    41.436445     82.87289 
   47600    1097.6484   -24696.983   -25831.899   -9.8487303    75.154633   -680.58874    575.88792      41.4378      41.4378      82.8756 
   47700    1091.6828   -24697.169   -25825.917    155.04383   -68.891987    820.41519   -286.39172    41.438683    41.438683    82.877366 
   47800    1100.6117   -24697.367   -25835.347   -61.003619   -55.570358    -355.8025      228.362    41.438697    41.438697    82.877394 
   47900    1102.7656   -24697.532   -25837.739   -214.81294   -607.22606   -275.08207    237.86931    41.438415    41.438415     82.87683 
   48000    1095.3681   -24697.609   -25830.167    162.73111    346.96238    231.39025   -90.159289    41.437923    41.437923    82.875846 
   48100    1093.1915   -24697.615   -25827.922    155.64303    229.52724    318.60418   -81.202332    41.437693    41.437693    82.875387 
   48200    1105.2979    -24697.57   -25840.395   -180.71201   -371.62867   -106.00524   -64.502105    41.437567    41.437567    82.875135 
   48300    1097.6621   -24697.604   -25832.533    152.12829    305.83815    275.95075   -125.40403    41.436801    41.436801    82.873603 
   48400    1097.9213   -24697.647   -25832.845    13.696622    238.45986   -165.09749     -32.2725     41.43647     41.43647     82.87294 
   48500    1115.6665   -24697.732   -25851.277    -555.4617   -957.05573   -373.15606   -336.17331    41.436186    41.436186    82.872372 
   48600    1091.8105   -24697.891    -25826.77    223.90143    575.55437   -85.474327    181.62424    41.435002    41.435002    82.870004 
   48700    1104.7531   -24698.034   -25840.296   -47.790287   -344.18485   -48.490286    249.30428    41.434037    41.434037    82.868073 
   48800     1099.114   -24698.261   -25834.692    54.273792   -455.20308    302.77055     315.2539    41.433209    41.433209    82.866418 
   48900    1095.9435   -24698.431   -25831.584    346.46864     640.3307    251.12922    147.94601    41.433463    41.433463    82.866927 
   49000    1119.9977    -24698.55   -25856.574   -399.15746   -946.70429    199.44962    -450.2177    41.434837    41.434837    82.869674 
   49100    1090.4677   -24698.767   -25826.258    280.93893    312.94413    285.27273    244.59993    41.435836    41.435836    82.871673 
   49200    1114.1754   -24698.889   -25850.892   -431.48147   -435.46565   -493.89041   -365.08836      41.4376      41.4376    82.875201 
   49300    1089.4846   -24699.007   -25825.481    165.56322    174.29742    601.84802   -279.45579    41.438829    41.438829    82.877658 
   49400    1095.6837   -24699.114   -25831.998   -22.220078   -64.291869    225.36854    -227.7369    41.439445    41.439445    82.878889 
   49500    1101.5715   -24699.248    -25838.22   -194.38233   -149.18499    -394.5956    -39.36639    41.439216    41.439216    82.878431 
   49600    1097.6396   -24699.279   -25834.185   -122.32435    234.89833   -331.18938     -270.682    41.438836    41.438836    82.877673 
   49700     1094.664   -24699.195   -25831.025   -29.625131    -340.0759   -562.90206    814.10257    41.438432    41.438432    82.876864 
   49800    1108.3123   -24699.072   -25845.013   -371.67047   -407.52225   -708.50591    1.0167553    41.437705    41.437705     82.87541 
   49900    1100.5915   -24699.023   -25836.982   -49.062872   -329.80023    40.295888    142.31572    41.435987    41.435987    82.871974 
   50000     1094.567   -24699.032   -25830.762    197.32001    214.08648   -115.12937    493.00293    41.433967    41.433967    82.867935 
Loop time of 1462.14 on 1 procs for 50000 steps with 8000 atoms

Pair  time (%) = 1321.31 (90.3683)
Neigh time (%) = 99.6673 (6.81652)
Comm  time (%) = 8.64544 (0.591285)
Outpt time (%) = 0.630724 (0.043137)
Other time (%) = 31.8851 (2.18071)

Nlocal:    8000 ave 8000 max 8000 min
Histogram: 1 0 0 0 0 0 0 0 0 0
Nghost:    9072 ave 9072 max 9072 min
Histogram: 1 0 0 0 0 0 0 0 0 0
Neighs:    290449 ave 290449 max 290449 min
Histogram: 1 0 0 0 0 0 0 0 0 0

Total # of neighbors = 290449
Ave neighs/atom = 36.3061
Neighbor list builds = 5000
Dangerous builds = 0
unfix		1

# Melt half the system
region  liquid block INF INF INF INF INF ${nzhalf}
region  liquid block INF INF INF INF INF 10
group	liquid_group region liquid
3977 atoms in group liquid_group

# Heat up one side to Tmelt to make sure it is melted
fix 2 liquid_group npt temp ${Tmelt} ${Tmelt} 1 z 0 0 10 drag 1.0
fix 2 liquid_group npt temp 2000 ${Tmelt} 1 z 0 0 10 drag 1.0
fix 2 liquid_group npt temp 2000 2000 1 z 0 0 10 drag 1.0
run		${eqsteps}
run		50000
Memory usage per processor = 5.95825 Mbytes
Step Temp TotEng PotEng Press Pxx Pyy Pzz Lx Ly Lz 
   50000     1094.567   -24699.032   -25830.762    197.32001    214.08648   -115.12937    493.00293    41.433967    41.433967    82.867935 
   50100    1109.4851   -24696.682   -25843.836   -141.60794   -363.96685   -211.87325    151.01627    41.433967    41.433967    82.867998 
   50200    1106.5494   -24690.919   -25835.038      103.602    24.739824    343.52364   -57.457447    41.433967    41.433967    82.868145 
   50300    1107.1848   -24684.943   -25829.719    277.38959    125.44158    425.59878    281.12842    41.433967    41.433967    82.868299 
   50400    1105.8323   -24679.463    -25822.84     462.2505     647.9093      304.364     434.4782    41.433967    41.433967    82.868651 
   50500    1113.2888   -24673.486   -25824.573      427.936    865.90727    443.36022   -25.459491    41.433967    41.433967    82.869225 
   50600    1122.1247    -24667.04   -25827.263     468.4824    419.63759    599.81934    385.99028    41.433967    41.433967    82.869852 
   50700     1122.325   -24660.421   -25820.851    611.62503    1154.6193    565.04023    115.21554    41.433967    41.433967    82.870583 
   50800    1136.6389   -24653.638   -25828.868    587.26628    794.23641    822.44737    145.11506    41.433967    41.433967    82.871548 
   50900    1123.1711   -24646.765   -25808.069      988.967    812.36352    1555.9098    598.62765    41.433967    41.433967    82.872772 
   51000    1132.4255   -24639.899   -25810.773     867.9489    1038.2912    455.03796    1110.5175    41.433967    41.433967    82.874317 
   51100    1128.6271   -24632.873   -25799.819    1289.3285    1664.5319    869.43411    1334.0194    41.433967    41.433967    82.876423 
   51200    1133.3371   -24625.859   -25797.675    1498.9197    1513.2295    1621.1354    1362.3941    41.433967    41.433967    82.879119 
   51300    1126.5497   -24618.766   -25783.564    1940.5733     1712.572    1860.2775    2248.8704    41.433967    41.433967    82.882441 
   51400    1143.3282   -24611.641   -25793.788    1522.3495    1841.3035    1515.6841     1210.061    41.433967    41.433967    82.886597 
   51500    1140.7969   -24604.469   -25783.998    1891.5843    2244.0993    1958.5898    1472.0638    41.433967    41.433967    82.891401 
   51600    1150.3892   -24597.286   -25786.733    1740.5089    1984.6084    1553.4157    1683.5028    41.433967    41.433967    82.896834 
   51700    1153.8885   -24590.058   -25783.123    1904.6064    2392.3305    1838.9594    1482.5294    41.433967    41.433967    82.903006 
   51800    1151.8655   -24582.805   -25773.778    2069.3851    1990.8682    2456.0453    1761.2419    41.433967    41.433967    82.909896 
   51900    1161.4492   -24575.511   -25776.393    2025.6945    2295.2531     2100.173    1681.6574    41.433967    41.433967    82.917667 
   52000    1160.2107   -24568.217   -25767.819    2272.2268    2231.5898     2777.791    1807.2995    41.433967    41.433967    82.926223 
   52100    1169.7938   -24560.912   -25770.423    2110.2152    2446.9474    2099.8793     1783.819    41.433967    41.433967    82.935521 
   52200    1170.0737   -24553.591   -25763.391    2292.1579    2259.0217    2808.6656    1808.7864    41.433967    41.433967    82.945645 
   52300    1152.2262   -24546.294   -25737.641    2790.8216     2836.845    2403.6216    3131.9981    41.433967    41.433967    82.956684 
   52400    1165.6535    -24538.99   -25744.219    2632.9338    2922.8036    2597.3386    2378.6594    41.433967    41.433967    82.968949 
   52500    1172.5822   -24531.564   -25743.958    2574.3577    3009.6192    2357.3655    2356.0884    41.433967    41.433967    82.982266 
   52600    1184.8005   -24524.137   -25749.164    2303.3592    2389.2898    2831.2708    1689.5169    41.433967    41.433967    82.996455 
   52700    1175.6858   -24516.727   -25732.329    2883.2674     3666.454    2632.1263     2351.222    41.433967    41.433967    83.011455 
   52800    1177.9192   -24509.271   -25727.183     2808.205    2897.1603     2644.427    2883.0278    41.433967    41.433967     83.02749 
   52900    1179.8988   -24501.907   -25721.866    2813.2014    2198.6448    3176.8278    3064.1317    41.433967    41.433967    83.044719 
   53000     1184.068   -24494.433   -25718.702    2800.8128    2718.0236    2703.4102    2981.0047    41.433967    41.433967    83.063146 
   53100    1189.5483   -24486.913   -25716.849    2809.9394    2893.0165     2737.995    2798.8069    41.433967    41.433967    83.082622 
   53200    1202.3642   -24479.407   -25722.593    2590.5855    2778.8663    1996.5498    2996.3403    41.433967    41.433967    83.103186 
   53300    1199.0553   -24471.864    -25711.63    2751.7216    2708.9217    3056.0387    2490.2044    41.433967    41.433967    83.124837 
   53400    1204.2753   -24464.345   -25709.508    2635.4791      2313.04    3455.9147    2137.4826    41.433967    41.433967    83.147506 
   53500    1200.8767   -24456.753   -25698.402    2887.7181    2758.5149    2851.8025    3052.8367    41.433967    41.433967    83.170989 
   53600    1200.8879   -24449.225   -25690.885    2787.1938    2698.0068     2908.596    2754.9786    41.433967    41.433967    83.195418 
   53700    1203.0113   -24441.604    -25685.46    2862.7063    2923.8884    3257.4712    2406.7594    41.433967    41.433967    83.220683 
   53800    1209.6478   -24434.001   -25684.718    2706.2815     3156.988    2518.9611    2442.8954    41.433967    41.433967    83.246616 
   53900    1217.9629   -24426.365    -25685.68     2590.821    2452.8405    3159.4446     2160.178    41.433967    41.433967    83.273249 
   54000    1221.0802   -24418.703   -25681.241    2551.8981    3182.8292    2468.8533    2004.0117    41.433967    41.433967    83.300555 
   54100    1225.3216   -24411.038   -25677.962    2373.5585      1835.48    2787.8796    2497.3159    41.433967    41.433967    83.328434 
   54200    1213.2621   -24403.368   -25657.823    2736.6143    2940.0678    3044.6518    2225.1232    41.433967    41.433967    83.356953 
   54300    1234.2523   -24395.689   -25671.846    2179.8228    2268.7092     3028.206    1242.5532    41.433967    41.433967    83.385939 
   54400    1225.7854   -24387.947    -25655.35    2385.7177    2297.1445    2735.0482    2124.9603    41.433967    41.433967    83.415064 
   54500    1235.1289   -24380.172   -25657.236    2235.8438    2067.7675    2632.1614    2007.6025    41.433967    41.433967    83.444332 
   54600    1223.1508   -24372.413   -25637.092    2532.8729    2720.5967    2981.6659    1896.3562    41.433967    41.433967    83.473685 
   54700    1240.0442   -24364.666   -25646.812     2194.615     2522.926     2477.314    1583.6048    41.433967    41.433967    83.503112 
[...]
  336300    1021.9377   -24442.142   -25498.776    590.68419    18.492218    1034.8638    718.69651    41.038813    41.038813     85.76555 
  336400    1028.5903   -24442.173   -25505.686   -158.22174   -244.90781   -540.03945    310.28203    41.039056    41.039056     85.83082 
  336500    1017.7779   -24442.167   -25494.501   -347.13645   -587.34785    216.71385   -670.77534    41.039245    41.039245    85.904111 
  336600    1025.6643   -24442.164   -25502.651   -467.03153   -508.67921    336.11906   -1228.5344    41.039315    41.039315    85.910797 
  336700    1025.8495   -24442.171    -25502.85   -275.71861   -718.14515   -598.98229    489.97161    41.039205    41.039205    85.845361 
  336800    1034.8405   -24442.177   -25512.152   -126.71589    -824.6507    988.18502     -543.682    41.038914    41.038914    85.802838 
  336900    1024.1085   -24442.178   -25501.057    488.22297    393.23698    178.18488    893.24705    41.038742    41.038742    85.737524 
  337000    1015.7941   -24442.183   -25492.465    815.82149    446.51235    559.10839    1441.8437    41.038771    41.038771    85.733581 
  337100    1027.6195   -24442.245   -25504.754   -203.68647   -24.768764    -52.92283   -533.36781    41.038971    41.038971    85.829564 
  337200    1016.0684   -24442.228   -25492.794   -446.22602   -1380.5457    -936.7289    978.59652     41.03915     41.03915    85.909682 
  337300     1023.864   -24442.221   -25500.848   -1228.2263   -545.92449   -1278.3117   -1860.4428    41.038854    41.038854     85.99412 
  337400    1012.2421   -24442.248   -25488.858   -726.56443   -556.48889   -489.05282   -1134.1516     41.03819     41.03819    85.957089 
  337500    1026.1896    -24442.34   -25503.371     40.76837   -457.80891    37.033064    543.08095    41.037364    41.037364    85.828615 
  337600    1028.0444   -24442.264   -25505.213    548.70476    820.24735   -91.031166    916.89808     41.03666     41.03666    85.763783 
  337700    1019.5631   -24442.277   -25496.456    342.39423    814.61618   -92.176945    304.74346    41.036178    41.036178    85.793386 
  337800    1013.8238   -24442.261   -25490.506    332.41407    356.72933    689.24708   -48.734193    41.035882    41.035882    85.824444 
  337900    1023.3197   -24442.266   -25500.329    188.14279    -189.4874    462.35687     291.5589    41.035768    41.035768    85.828897 
  338000    1019.6793   -24442.264   -25496.563    151.40536   -643.68891    617.55148    480.35349    41.035751    41.035751    85.833057 
  338100    1027.0226   -24442.265   -25504.157   -336.90107   -62.712013   -207.01635   -740.97484    41.035669    41.035669    85.846494 
  338200    1025.6884   -24442.269   -25502.782   -1.3971159   -739.88661    389.71855    345.97671    41.035528    41.035528    85.818137 
  338300    1038.2462   -24442.287   -25515.783   -129.64658    249.69622    138.80874   -777.44471    41.035442    41.035442    85.789462 
  338400     1030.458   -24442.278   -25507.722    308.93462   -431.88268     199.3276    1159.3589    41.035474    41.035474    85.753813 
  338500    1024.0464   -24442.318   -25501.133   -47.205905   -837.57759    460.03168    235.92819    41.035562    41.035562    85.815455 
  338600    1018.5554   -24442.307   -25495.444   -272.29287   -459.64888   -574.76773    217.53802    41.035596    41.035596    85.892613 
  338700    1021.8328   -24442.305   -25498.831   -625.72022     -519.896   -1012.7309   -344.53379    41.035367    41.035367    85.940624 
  338800    1018.9878   -24442.295    -25495.88   -362.92517   -628.45925   -182.45281   -277.86345    41.034843    41.034843    85.952217 
  338900    1020.7006   -24442.308   -25497.663   -243.80973   -628.90874   -207.77164    105.25118    41.034151    41.034151    85.922836 
  339000    1027.6023   -24442.341   -25504.832   -194.64518    280.79286   -616.30711   -248.42129    41.033407    41.033407    85.864547 
  339100    1029.5367   -24442.355   -25506.846    273.99232     1083.167   -74.096963   -187.09311    41.032793    41.032793    85.783512 
  339200     1027.223   -24442.329   -25504.428    1012.2793    1185.3814    1692.1056    159.35076     41.03249     41.03249    85.720063 
  339300     1026.722   -24442.333   -25503.914    866.31642     1178.926    473.95853    946.06467     41.03271     41.03271     85.71281 
  339400    1034.6116   -24442.342    -25512.08    283.42857    948.22433   -129.02207    31.083449     41.03333     41.03333     85.76421 
  339500    1034.6191   -24442.367   -25512.114   -168.62314    357.16165   -204.25549   -658.77558    41.034145    41.034145    85.833393 
  339600    1023.1908   -24442.343   -25500.273     -298.875    90.298956   -1201.9629    215.03891    41.034894    41.034894    85.878151 
  339700     1040.813   -24442.358   -25518.509   -846.21178   -101.92643   -1034.9951   -1401.7138    41.035336    41.035336     85.88511 
  339800    1023.9709   -24442.394    -25501.13    214.39744    682.88725    102.67352   -142.36844    41.035563    41.035563    85.803212 
  339900    1027.5532    -24442.37   -25504.811    612.68133    1378.4405   -165.10478    624.70826    41.035881    41.035881    85.727351 
  340000    1024.2071   -24442.373   -25501.354    756.55478     822.9741    842.02759    604.66264    41.036438    41.036438    85.726765 
  340100    1016.3171   -24442.408   -25493.231    508.65564    728.13297   -34.968512    832.80246    41.037172    41.037172    85.788324 
  340200    1020.8645   -24442.431   -25497.956    -158.2248    194.71041   -29.747639   -639.63718    41.037946    41.037946    85.883777 
  340300    1023.7468   -24442.398   -25500.903   -712.72019   -1021.1797   -434.70603    -682.2748    41.038585    41.038585    85.922434 
  340400    1023.5037    -24442.44   -25500.694   -285.80717   -1058.2923    768.97937   -568.10854    41.038876    41.038876    85.872499 
  340500      1013.17   -24442.478   -25490.047    825.13765    299.84213    1202.6404    972.93038    41.039037    41.039037    85.758268 
  340600    1026.1133   -24442.428    -25503.38    877.09719    1009.5119    604.93598    1016.8437    41.039406    41.039406    85.699246 
  340700    1014.5101   -24442.446     -25491.4    1100.7398    1432.5024    1111.6339    758.08304    41.040087    41.040087    85.722184 
  340800    1021.4586   -24442.461     -25498.6    530.64586    511.80209    1273.6759   -193.54038    41.041157    41.041157    85.780444 
  340900    1025.7464   -24442.458   -25503.031    43.856217     605.1077     308.5392   -782.07825    41.042463    41.042463    85.797014 
  341000     1026.659   -24442.457   -25503.973    312.05832    882.74354   -170.28015    223.71159    41.043748    41.043748    85.762351 
  341100    1025.6103   -24442.466   -25502.898    235.43445    1445.5364   -443.05436   -296.17864    41.045024    41.045024    85.748143 
  341200    1012.3998   -24442.486   -25489.259    529.70763    347.94375   -95.738713    1336.9179    41.046288    41.046288    85.751671 
  341300    1030.2715   -24442.498   -25507.749   -308.37689   -134.03867   -118.29244   -672.79956    41.047414    41.047414    85.834777 
  341400    1024.3647   -24442.475   -25501.618   -710.72467   -741.78884   -153.98671   -1236.3985    41.048276    41.048276    85.872451 
  341500    1029.0959    -24442.48   -25506.516   -449.04622   -385.60625   -1113.6138    152.08141    41.048738    41.048738    85.844077 
  341600     1019.574   -24442.479   -25496.669   -32.645863    63.099869   -428.51553    267.47807    41.048813    41.048813     85.82216 
  341700    1023.7872   -24442.485   -25501.032    18.833095   -690.89079    693.24106    54.149019     41.04873     41.04873    85.789507 
  341800    1024.9435   -24442.482   -25502.224    295.33434   -757.90354    673.61717     970.2894    41.048584    41.048584    85.769507 
  341900    1013.4468    -24442.49   -25490.345   -157.51402   -900.38429   -778.13845    1205.9807    41.048383    41.048383    85.810563 
  342000    1026.6887   -24442.502   -25504.048   -570.78846   -1198.9453    468.11877   -981.53882    41.047912    41.047912    85.877433 
  342100    1031.9087   -24442.508   -25509.452   -654.96912   -858.67514   -991.70393    -114.5283    41.047288    41.047288    85.862219 
  342200    1018.0432   -24442.516   -25495.123   0.78132445   -480.78341    365.09815    118.02923    41.046474    41.046474    85.807149 
  342300    1036.7204   -24442.517   -25514.436   -136.73775    42.169131   -9.8663981   -442.51599    41.045734    41.045734    85.757533 
  342400    1030.0202    -24442.51   -25507.501    361.50981    346.72296    -1004.856    1742.6625    41.045204    41.045204    85.721057 
  342500    1024.9549   -24442.562   -25502.316   -22.749007   -249.29718   -398.24067    579.29084    41.044755    41.044755    85.788902 
  342600    1024.0947    -24442.55   -25501.415   -582.01677    -742.9336   -524.25199    -478.8647    41.044301    41.044301    85.876836 
  342700    1033.2963   -24442.537   -25510.916   -1048.3188   -1836.3059   -1302.8502    -5.800319    41.043708    41.043708    85.911452 
  342800    1016.8477   -24442.533   -25493.904   -268.50226   -855.10054   -120.23616    169.82991    41.042697    41.042697    85.921528 
  342900    1025.6389    -24442.54   -25503.002   -916.05216    -1283.973   -1697.5808     233.3973    41.041487    41.041487    85.925926 
  343000    1019.4955   -24442.549   -25496.658   -640.15192    -452.1324   -1396.3753    -71.94808    41.039916    41.039916    85.941796 
  343100    1029.3897    -24442.56     -25506.9   -816.90123   -426.75389   -1154.7533   -869.19646     41.03814     41.03814    85.947684 
  343200    1019.6957   -24442.598   -25496.914   -386.88909   -688.81852    100.68853   -572.53728    41.036319    41.036319     85.89983 
  343300    1028.2649   -24442.591   -25505.768    158.48419   -130.29736   -24.949457     630.6994    41.034591    41.034591    85.814436 
  343400    1031.6314   -24442.581   -25509.238    199.95034    446.89481   -131.34066    284.29688    41.033146    41.033146    85.793557 
  343500    1026.3144   -24442.581   -25503.741    317.00979    422.51248    909.78122   -381.26432    41.032109    41.032109    85.806077 
  343600    1037.1619   -24442.579   -25514.954    248.45484   -92.444369    1261.6073   -423.79837    41.031558    41.031558    85.801114 
  343700    1021.0207   -24442.575   -25498.262    649.08526    828.28963    1171.5459   -52.579724      41.0314      41.0314    85.782917 
  343800    1026.7561   -24442.575   -25504.191    590.23054    1023.4116     639.5571    107.72289    41.031658    41.031658     85.77783 
  343900    1029.9725   -24442.577   -25507.519     384.7782    236.08638    635.53686    282.71136    41.032222    41.032222    85.786881 
  344000    1021.9806   -24442.598   -25499.277    302.25693    -395.1472    891.69391     410.2241    41.032914    41.032914    85.819437 
  344100     1013.989     -24442.6   -25491.016      264.979   -307.89048    1155.9806   -53.153085    41.033581    41.033581    85.872236 
  344200    1017.4855    -24442.58   -25494.611   -195.81512    209.75549   -746.34397   -50.856882    41.034172    41.034172     85.90333 
  344300    1017.8655   -24442.582   -25495.006   -203.29319    121.44372   -559.70788   -171.61541    41.034522    41.034522    85.912193 
  344400    1002.6605    -24442.58   -25479.282    194.24674    62.176244    325.60253    194.96143    41.034674    41.034674    85.891457 
  344500    1026.4265   -24442.613   -25503.889   -61.021517   -643.71328    804.59429   -343.94556    41.034765    41.034765    85.852614 
  344600    1018.9447   -24442.612   -25496.152    705.16475    -587.6058    1527.8788    1175.2212     41.03493     41.03493    85.774716 
  344700    1034.2296    -24442.61   -25511.954    84.041375    985.26382   -311.84545   -421.29425     41.03527     41.03527    85.782098 
  344800    1019.9629   -24442.606   -25497.198    542.04734    604.72223    490.17257    531.24723     41.03577     41.03577    85.812239 
  344900    1025.5459   -24442.629   -25502.994   -365.80525   -1634.2158    187.01064    349.78943    41.036357    41.036357    85.858579 
  345000    1025.6963   -24442.637   -25503.158   -492.25775   -723.95226   -67.546021   -685.27497    41.036694    41.036694    85.920532 
  345100    1020.3496   -24442.625   -25497.617   -337.36432   -1010.7347    667.01868   -668.37691    41.036868    41.036868    85.927988 
  345200    1016.2218   -24442.627   -25493.351    -23.22002   -462.17254   -139.72132     532.2338    41.036923    41.036923    85.872186 
  345300    1022.3849   -24442.623    -25499.72   -78.954022    -431.1875     191.5783    2.7471269    41.036866    41.036866    85.847017 
  345400    1026.6996   -24442.635   -25504.193   -160.60445   -1592.0629    1049.3342    60.915409    41.036769    41.036769    85.864398 
  345500    1011.4595    -24442.62   -25488.421   -96.431394    -432.4985    1200.0486   -1056.8443    41.036606    41.036606    85.889112 
  345600    1015.9152   -24442.681   -25493.088    243.59779    902.35311    56.938883   -228.49862    41.036525    41.036525    85.827078 
  345700    1018.7889   -24442.639   -25496.018    619.01264    446.41745    431.84681    978.77366     41.03663     41.03663    85.757197 
  345800    1021.9282   -24442.691   -25499.316    462.83987   -738.86235    1310.7283    816.65366    41.036857    41.036857    85.797261 
  345900      1011.75   -24442.673   -25488.774     -21.0477    1341.6256   -354.18246   -1050.5862    41.037103    41.037103    85.893139 
  346000    1027.4736   -24442.671   -25505.029    -469.7019   -967.97211    679.22118   -1120.3548    41.037341    41.037341    85.895507 
  346100    1018.3946   -24442.667   -25495.638    101.79873   -155.83751    204.09622    257.13748     41.03751     41.03751    85.848913 
  346200    1020.5853   -24442.663   -25497.899   -53.654518   -277.48459    202.40873   -85.887692    41.037634    41.037634    85.841831 
  346300    1012.9502   -24442.675   -25490.017    223.35123   -1239.3872    1283.3453     626.0956    41.037614    41.037614    85.866008 
  346400    1014.5087   -24442.706   -25491.659    -369.3499   -693.74065   -200.64523   -213.66383    41.037451    41.037451    85.939944 
  346500    1014.7191   -24442.674   -25491.844   -854.34065   -459.68471   -1092.6798   -1010.6574    41.037111    41.037111    85.975415 
  346600    1013.6848   -24442.702   -25490.803   -447.28983   -439.73571   -771.73666   -130.39711    41.036444    41.036444      85.9307 
  346700    1018.8041   -24442.731   -25496.126    28.284053    189.16457   -11.331926   -92.980481    41.035592    41.035592    85.862017 
  346800     1021.822   -24442.696   -25499.211   -1.2821986    33.663874   -689.49888    651.98841    41.034828    41.034828    85.814468 
  346900    1025.1322   -24442.705   -25502.642    55.977507   -398.07217    551.70744     14.29726    41.034114    41.034114    85.829796 
  347000    1022.5701   -24442.698   -25499.987   -117.70291   -40.918507   -31.082474   -281.10776    41.033571    41.033571    85.853753 
  347100    1022.7423   -24442.723   -25500.189   -74.062469    -433.0955   -449.00241     659.9105    41.033102    41.033102    85.879258 
  347200    1026.4695   -24442.714   -25504.034   -683.05683    155.83844   -763.94357   -1441.0654    41.032529    41.032529    85.934484 
  347300    1028.8626   -24442.728   -25506.522   -275.97888   -427.19217    351.04916   -751.79361    41.031847    41.031847    85.901412 
  347400     1023.517   -24442.743    -25501.01    207.19261    224.63755   -272.66822     669.6085    41.031245    41.031245    85.826587 
  347500    1016.0111    -24442.74   -25493.246    643.94111    -508.6642    1075.2506     1365.237    41.030763    41.030763    85.815986 
  347600    1016.7507   -24442.787   -25494.059    57.909392   -121.79548    527.86462   -232.34096    41.030481    41.030481    85.902491 
  347700     1001.564   -24442.733   -25478.302   -169.70567   -149.33477    74.937255    -434.7195    41.030295    41.030295    85.958277 
  347800     1010.941   -24442.756    -25488.02    -274.8628   -259.96159   -374.82802   -189.79881    41.029954    41.029954    85.930843 
  347900    1011.0495   -24442.753   -25488.129    221.66684   -271.75589   -2.5118746    939.26829    41.029466    41.029466    85.876334 
  348000    1020.2185   -24442.749   -25497.606   -99.125117   -902.16183    804.71305   -199.92657    41.028987    41.028987    85.864198 
  348100    1015.3268   -24442.744   -25492.543    274.72587    275.88875    284.65142    263.63743      41.0286      41.0286    85.851936 
  348200    1022.0405    -24442.75   -25499.491     126.4351    451.75045    510.94365    -583.3888    41.028342    41.028342    85.856666 
  348300    1027.6999   -24442.757   -25505.349    309.03243    305.17827   -92.569066    714.48809     41.02831     41.02831    85.845303 
  348400    1021.7481   -24442.749   -25499.187    246.95337     948.9355    386.46513   -594.54053    41.028468    41.028468    85.867219 
  348500    1014.6267   -24442.748   -25491.823    346.26509    517.02141    454.41502    67.358844    41.028822    41.028822    85.866659 
  348600    1004.7166   -24442.744   -25481.573    760.25966    1670.0092    348.61074    262.15901    41.029321    41.029321    85.851837 
  348700    1026.9565   -24442.761   -25504.585    359.59883    31.403129    442.47623    604.91715    41.030015    41.030015    85.829762 
  348800    1020.9467   -24442.761    -25498.37   -56.261129    29.816755   -626.31287    427.71273    41.030725    41.030725     85.84663 
  348900    1021.1673   -24442.765   -25498.603   -342.13018   -544.17409    85.884982   -568.10142    41.031225    41.031225    85.899262 
  349000     1022.704   -24442.768   -25500.194   -271.08431     308.0963   -690.89869   -430.45053    41.031482    41.031482    85.894949 
  349100    1028.3877   -24442.831   -25506.134   -60.319323    316.06882    416.84865   -913.87544    41.031713    41.031713    85.828026 
  349200    1017.8694   -24442.802    -25495.23    1012.6015    501.11648    1470.6821    1066.0059    41.032157    41.032157    85.732095 
  349300    1021.3279   -24442.789   -25498.793    1189.4113    1341.9008     1235.875     990.4583    41.032952    41.032952    85.714222 
  349400    1021.2005   -24442.796   -25498.668    534.89392    1279.4066    793.87166   -468.59651    41.034131    41.034131    85.754843 
  349500    1024.3767   -24442.803   -25501.959    360.07423    234.44787    864.86012   -19.085289    41.035558    41.035558    85.777329 
  349600    1011.4891   -24442.806   -25488.637    551.51763    123.51111    1260.9128    270.12892    41.037101    41.037101    85.788049 
  349700    1023.1826   -24442.833   -25500.754    92.396276    90.491925    250.12522   -63.428314    41.038729    41.038729    85.817548 
  349800    1014.1096   -24442.812   -25491.353    51.767774   -245.43941    566.44786   -165.70513    41.040284    41.040284     85.84357 
  349900    1017.9108   -24442.813   -25495.283    101.32306   -556.76705     552.3653    308.37094    41.041696    41.041696    85.829673 
  350000    1008.4471    -24442.82   -25485.506   -30.233214   -212.37431    -422.7278    544.40246    41.042858    41.042858     85.83614 
Loop time of 5676.54 on 1 procs for 200000 steps with 8000 atoms

Pair  time (%) = 5130.55 (90.3815)
Neigh time (%) = 390.285 (6.8754)
Comm  time (%) = 32.6385 (0.574972)
Outpt time (%) = 2.50499 (0.0441288)
Other time (%) = 120.567 (2.12396)

Nlocal:    8000 ave 8000 max 8000 min
Histogram: 1 0 0 0 0 0 0 0 0 0
Nghost:    8421 ave 8421 max 8421 min
Histogram: 1 0 0 0 0 0 0 0 0 0
Neighs:    281209 ave 281209 max 281209 min
Histogram: 1 0 0 0 0 0 0 0 0 0

Total # of neighbors = 281209
Ave neighs/atom = 35.1511
>>>>>>> 94dc76cbf6aefb67eb008d019d1914a1977c8b15
Neighbor list builds = 20000
Dangerous builds = 0
unfix		4
