LAMMPS (13 Jan 2014)
dimension       3
boundary        p p p
units           metal

atom_style	atomic
neighbor	0.3 bin
neigh_modify	every 10 delay 0 check no

# Number of steps for the equilibration steps
variable        eqsteps equal 50000

# Number of steps to run our NPH simulation
variable        simsteps equal 200000

# Our trial melting temperature
variable	T equal 750.0
variable	T2 equal 2*${T}
variable	T2 equal 2*750

# Some high temperature to melt the crystal
variable	Tmelt equal 2000.0

#System size
variable	nx equal 10
variable	ny equal 10
variable	nz equal 20
variable	nzhalf equal ${nz}*0.5
variable	nzhalf equal 20*0.5
variable	a equal 4.050
variable	length equal ${nz}*${a}
variable	length equal 20*${a}
variable	length equal 20*4.05

lattice		fcc ${a}
lattice		fcc 4.05
Lattice spacing in x,y,z = 4.05 4.05 4.05

region         box block 0 ${nx} 0 ${ny} 0 ${nz}
region         box block 0 10 0 ${ny} 0 ${nz}
region         box block 0 10 0 10 0 ${nz}
region         box block 0 10 0 10 0 20
create_box     1 box
Created orthogonal box = (0 0 0) to (40.5 40.5 81)
  1 by 1 by 1 MPI processor grid
create_atoms   1 box
Created 8000 atoms

mass		1 26.9815

pair_style	eam/alloy
pair_coeff	* * Al_potential.alloy Al

velocity	all create ${T2} 1337
velocity	all create 1500 1337

# Create a dump file. This can be visualized with
# e.g. OVITO (http://www.ovito.org/)
dump		id all atom 1000 atomsdump

# 1 fs timestep
timestep	0.001
thermo_style	custom step temp etotal pe press pxx pyy pzz lx ly lz

# output every 100th timestep
thermo		100

# Equilibration the whole system to the trial melting temperature
fix		1 all npt temp ${T} ${T} 1 iso 0 0 3 drag 1.0
fix		1 all npt temp 750 ${T} 1 iso 0 0 3 drag 1.0
fix		1 all npt temp 750 750 1 iso 0 0 3 drag 1.0
run		${eqsteps}
run		50000
Memory usage per processor = 5.95314 Mbytes
Step Temp TotEng PotEng Press Pxx Pyy Pzz Lx Ly Lz 
       0         1500   -25626.324   -27177.252    8404.8025    8291.4929    8279.7718    8643.1426         40.5         40.5           81 
     100    730.28056   -25640.879   -26395.954    22102.113     22346.97    22076.736    21882.633    40.586612    40.586612    81.173223 
     200    700.46203   -25660.223   -26384.467     11571.22    12020.366    11540.197    11153.098    40.787674    40.787674    81.575347 
     300    715.48548   -25666.379   -26406.157    2799.8621    2726.9297    2711.9077    2960.7491    40.946229    40.946229    81.892457 
     400    701.14697   -25665.264   -26390.217   -1460.3429   -1833.8534   -908.96859   -1638.2068    41.039585    41.039585     82.07917 
     500    693.51992   -25662.342   -26379.408   -3637.3338   -3475.5558   -3497.2476   -3939.1981    41.088356    41.088356    82.176712 
     600    692.34661   -25659.445   -26375.298   -4085.4997    -4054.637   -4049.0816   -4152.7805    41.099932    41.099932    82.199864 
     700    690.80462   -25657.027   -26371.286   -3055.9078   -2933.2318    -3238.966   -2995.5255    41.081909    41.081909    82.163818 
     800    710.71183   -25654.702   -26389.544   -1673.7912   -1721.1049   -1782.1976   -1518.0712     41.04663     41.04663     82.09326 
     900    705.73485   -25652.214    -26381.91     424.9929    326.32001    480.65076    468.00794    41.008249    41.008249    82.016498 
    1000    713.60188   -25649.624   -26387.454    1695.2086     1970.547    1656.6552    1458.4235    40.980262    40.980262    81.960524 
    1100    720.96084   -25647.253   -26392.692    2152.7419    2001.1355    2290.0163    2167.0739    40.969725    40.969725    81.939451 
    1200    712.77981   -25645.237   -26382.217    2024.3144    2141.8831    2302.5486    1628.5116    40.976713    40.976713    81.953426 
    1300    699.98973   -25643.417   -26367.173    1382.8947    1224.3084     1617.055    1307.3206    40.995787    40.995787    81.991575 
    1400    714.60409   -25641.454    -26380.32   -15.753131    263.22883   -167.31306   -143.17516    41.019772    41.019772    82.039544 
    1500     719.6102   -25639.314   -26383.356   -1127.1113   -1088.4308   -1382.6846   -910.21838    41.040212    41.040212    82.080424 
    1600    705.99617    -25637.09   -26367.056   -1179.5237   -1405.0444   -1080.2825   -1053.2441    41.051698    41.051698    82.103396 
    1700    703.36116   -25634.903   -26362.145   -1078.6304   -1502.6093   -962.41472   -770.86718    41.052193    41.052193    82.104385 
    1800    711.41158   -25632.794    -26368.36   -820.58483   -909.80605   -763.95234    -787.9961    41.043566    41.043566    82.087131 
    1900    713.09274   -25630.713   -26368.017   -196.64361   -251.48644   -191.55126   -146.89314    41.030005    41.030005    82.060009 
    2000    716.85631   -25628.601   -26369.796    488.47377    380.05031    763.18859    322.18239    41.016922    41.016922    82.033844 
    2100    717.56586   -25626.518   -26368.446    911.61044    947.14006    1084.9722    702.71903    41.008754    41.008754    82.017508 
    2200    720.08244   -25624.532   -26369.063    937.57867    621.75699    1259.6186    931.36041    41.007412    41.007412    82.014824 
    2300    728.59853   -25622.668   -26376.003     560.8433   -24.842523    1246.9406    460.43188    41.012846    41.012846    82.025693 
    2400    724.37018   -25620.823   -26369.786    207.25713     200.3304    205.81222    215.62877    41.023324    41.023324    82.046648 
    2500    718.02226   -25618.975   -26361.375   -157.71302   -393.01505   -89.512191    9.3881704    41.034672    41.034672    82.069344 
    2600    715.33456   -25617.097   -26356.718   -419.42557    -966.9962    36.922982    -328.2035    41.043459    41.043459    82.086918 
    2700    718.15792    -25615.22   -26357.761   -664.77669   -968.56475   -268.21018   -757.55515    41.047491    41.047491    82.094981 
    2800    719.08763    -25613.37   -26356.872   -481.54161    -592.1403   -549.17139   -303.31315    41.046079    41.046079    82.092158 
    2900    731.94828   -25611.559   -26368.358   -524.01084   -598.99341   -368.94392   -604.09519    41.040653    41.040653    82.081306 
    3000    724.83749   -25609.783    -26359.23    15.430212   -120.05803    169.86477   -3.5161133    41.033432    41.033432    82.066864 
    3100    731.73897    -25608.03   -26364.613    283.60454    369.60226    216.96192    264.24943    41.027304    41.027304    82.054607 
    3200    727.02056   -25606.331   -26358.035    487.36461    441.70227    69.996954    950.39461    41.024624    41.024624    82.049248 
    3300    723.84993   -25604.681   -26353.107    529.44184    328.38357    539.60925    720.33269    41.025886    41.025886    82.051772 
    3400    730.02146   -25603.069   -26357.876    220.18275   -119.51189    589.41697    190.64317    41.030459    41.030459    82.060919 
    3500    738.90116   -25601.476   -26365.464   -196.85956    36.955672   -511.17525   -116.35912    41.036948    41.036948    82.073897 
    3600    732.89598   -25599.919   -26357.698   -368.25442   -745.55177   -160.04283   -199.16866    41.042764    41.042764    82.085528 
    3700    725.88972   -25598.368   -26348.903   -373.32402   -317.58643   -296.64654    -505.7391    41.046395    41.046395     82.09279 
    3800    722.26133    -25596.77   -26343.554   -264.06313   -508.57552    315.28391    -598.8978    41.047406    41.047406    82.094811 
    3900    722.60291   -25595.225   -26342.362   -141.64705   -245.65004   -161.78465   -17.506475    41.045425    41.045425    82.090849 
    4000    724.74288   -25593.665   -26343.014    159.69458   -47.355566    275.89524    250.54406    41.041886    41.041886    82.083773 
    4100    727.60772   -25592.173   -26344.485    249.35732    -3.381743     479.7646    271.68912    41.038151    41.038151    82.076301 
    4200    734.39175   -25590.704    -26350.03    215.18413    69.774029    114.63328     461.1451    41.036002    41.036002    82.072005 
    4300    723.97891   -25589.317   -26337.876    560.57725    564.56604    665.52149    451.64423    41.035829    41.035829    82.071657 
    4400    736.85564   -25587.968   -26349.842    198.90486    235.30865     23.87293    337.53301    41.038325    41.038325    82.076649 
    4500    730.17932   -25586.658   -26341.628    221.46248   -273.57652    195.65589    742.30806    41.042431    41.042431    82.084861 
    4600    728.47167   -25585.358   -26338.563   -45.147553   -382.58189    263.03814    -15.89891    41.047035    41.047035     82.09407 
    4700    731.99823   -25584.073   -26340.924   -184.65349   -430.46497    160.50146   -283.99698    41.050445    41.050445    82.100889 
    4800    732.86722   -25582.824   -26340.574   -216.51882   -40.256496    4.6276553   -613.92761    41.051622    41.051622    82.103243 
    4900    734.41944   -25581.593   -26340.947    -253.7177   -503.85426   -52.759822   -204.53901    41.050616    41.050616    82.101232 
    5000    740.64001    -25580.36   -26346.146   -237.02193   -151.51653   -406.86627     -152.683    41.048136    41.048136    82.096273 
    5100    741.65021    -25579.19   -26346.021   -24.839986   -304.39912    -54.93848    284.81765     41.04462     41.04462    82.089241 
    5200    724.95028    -25578.04   -26327.603    631.90864    314.15035    491.36069    1090.2149    41.041959    41.041959    82.083918 
    5300    741.29463   -25576.912   -26343.375     241.8464    241.40956    108.29057    375.83907    41.041711    41.041711    82.083423 
    5400    744.97872    -25575.84   -26346.113    94.303239   -36.418288    11.292295    308.03571    41.043652    41.043652    82.087303 
    5500    734.93345   -25574.798   -26334.684    183.53435   -43.936604    361.75305     232.7866    41.047216    41.047216    82.094433 
    5600    733.08882   -25573.782    -26331.76    44.587828   -275.51144    3.9840516    405.29087    41.051274    41.051274    82.102548 
    5700    732.14094   -25572.795   -26329.793   -9.4602736    -320.9984   -65.537319     358.1549    41.054429    41.054429    82.108859 
    5800    746.41419    -25571.77   -26343.526   -420.98935   -867.05762    61.970297   -457.88073    41.056219    41.056219    82.112438 
    5900    738.83836   -25570.832   -26334.755   -141.53106   -152.30719    91.607508   -363.89349    41.055177    41.055177    82.110353 
    6000    736.80997   -25569.917   -26331.743    -3.126003   -99.297604    435.56765   -345.64806    41.052388    41.052388    82.104776 
    6100    743.28064   -25568.998   -26337.514    41.357028    112.06008    116.71037   -104.69936    41.049116    41.049116    82.098232 
    6200    740.51972   -25568.097   -26333.759    274.16622   -89.823257    685.93656    226.38535    41.046719    41.046719    82.093437 
    6300    746.95351   -25567.209   -26339.523    236.36014    452.23233    306.26811    -49.42001    41.046247    41.046247    82.092494 
    6400    742.86838   -25566.389   -26334.479     240.9447    189.53291    64.965342    468.33585    41.047567    41.047567    82.095135 
    6500    743.28419   -25565.585   -26334.105    57.606167   -42.839115    138.24219    77.415428    41.050558    41.050558    82.101116 
    6600    738.52207   -25564.801   -26328.398   -17.279006    60.550233    -434.2504    321.86315    41.054083    41.054083    82.108167 
    6700     742.6014   -25564.011   -26331.825   -81.784876   -50.670398   -382.20664    187.52241      41.0571      41.0571      82.1142 
    6800    745.53762   -25563.239   -26334.089   -219.76038    -296.0219   -154.42395   -208.83529    41.059022    41.059022    82.118045 
    6900    744.07051   -25562.488   -26331.821   -241.16538   -353.46452   -339.08063   -30.951003    41.059523    41.059523    82.119046 
    7000    739.20795   -25561.785    -26326.09   -33.610656    194.43459   -147.51496    -147.7516    41.058162    41.058162    82.116325 
    7100    751.73844   -25561.085   -26338.347   -196.56276   -105.32143   -49.928469   -434.43837    41.056004    41.056004    82.112008 
    7200    747.88611   -25560.421   -26333.699    64.010232   -179.04631    31.943332    339.13368    41.053719    41.053719    82.107439 
    7300    747.24476   -25559.805    -26332.42    142.14253    556.67401   -42.945957   -87.300469    41.052242    41.052242    82.104483 
    7400    746.18034   -25559.241   -26330.756    194.74375    376.37049    68.265127    139.59564     41.05197     41.05197    82.103941 
    7500    742.28411   -25558.693   -26326.179    245.59981    348.37663   -8.6906629    397.11347    41.052912    41.052912    82.105824 
    7600    753.23993   -25558.147   -26336.961   -33.164871     41.24352    -346.0791    205.34097    41.054853    41.054853    82.109706 
    7700     742.0307   -25557.654   -26324.878    100.59142    646.11677   -317.10888   -27.233639    41.056911    41.056911    82.113822 
    7800    753.25602   -25557.148   -26335.978   -266.06406    266.70933   -409.18876   -655.71276    41.059056    41.059056    82.118111 
    7900    746.97984   -25556.687   -26329.028    -135.5786    260.65272   -173.54202   -493.84648     41.05994     41.05994    82.119881 
    8000    748.37987   -25556.269   -26330.058   -113.80174    101.69547   -169.82491   -273.27577    41.059553    41.059553    82.119105 
    8100     749.9449   -25555.901   -26331.308   -72.931447     26.61407   -52.903726   -192.50469    41.058112    41.058112    82.116224 
    8200    750.24658   -25555.521    -26331.24    16.069472   -4.8662137   -449.83538    502.91001    41.056831    41.056831    82.113663 
    8300    745.44802   -25555.131   -26325.888    218.14207    5.1874239    228.84967     420.3891    41.055995    41.055995     82.11199 
    8400    739.93782   -25554.775   -26319.835    310.60203    228.47027    414.88414    288.45168    41.055773    41.055773    82.111546 
    8500    744.19889   -25554.456   -26323.922    161.79171    271.17897   -217.87991    432.07607    41.056285    41.056285    82.112569 
    8600    743.01262   -25554.152   -26322.391     208.8469   -198.62528     372.6925    452.47347    41.057525    41.057525    82.115051 
    8700    750.24498   -25553.869   -26329.586   -51.781289   -133.35763   -292.53822    270.55198    41.059309    41.059309    82.118619 
    8800    737.52621   -25553.653    -26316.22    163.32884    176.86429    251.52398    61.598241    41.060453    41.060453    82.120906 
    8900    753.15447   -25553.438   -26332.164   -254.25594   -591.66169   -299.63061    128.52447    41.060937    41.060937    82.121874 
    9000    745.58929   -25553.243   -26324.146   -49.982226    79.834634   -216.97277   -12.808538    41.060391    41.060391    82.120782 
    9100    746.97176   -25553.036   -26325.369    37.490195   -149.41636    356.10453   -94.217594    41.059275    41.059275     82.11855 
    9200    745.06578   -25552.816   -26323.179    100.17457    381.12014   -62.207122   -18.389304    41.058276    41.058276    82.116552 
    9300    753.28641   -25552.643   -26331.504   -22.799291   -587.50324    304.44486    214.66051    41.057474    41.057474    82.114947 
    9400    754.58659   -25552.506   -26332.712    17.865853   -382.86331    195.72347    240.73739    41.056946    41.056946    82.113893 
    9500    755.25908   -25552.364   -26333.265   -87.318053    99.354695   -221.19445    -140.1144    41.057286    41.057286    82.114571 
    9600    747.14654   -25552.218   -26324.732    80.121722   -23.846292   -229.27654      493.488    41.058191    41.058191    82.116383 
    9700    750.93279   -25552.062    -26328.49   -27.199196    58.426352   -323.89999    183.87605    41.059405    41.059405     82.11881 
    9800    740.73951   -25551.925   -26317.814    166.27801    46.996055    20.413982    431.42399    41.060327    41.060327    82.120654 
    9900    745.76357   -25551.828   -26322.911    11.897702   -164.63636    361.49892   -161.16946    41.060651    41.060651    82.121303 
   10000    750.56477   -25551.723   -26327.771   -75.841514   -89.432089   -433.01663    294.92417    41.060575    41.060575     82.12115 
   10100    751.35181   -25551.647   -26328.508   -159.21051   -36.814429   -153.93516   -286.88194    41.059809    41.059809    82.119618 
   10200     744.8522   -25551.556   -26321.698    120.43141    408.95959    234.52843   -282.19377    41.058631    41.058631    82.117263 
   10300    739.44727   -25551.476   -26316.029    250.15224    47.600703    283.43849    419.41753    41.057468    41.057468    82.114936 
   10400    750.26704   -25551.393   -26327.133    26.786718   -37.862948    146.52747   -28.304366    41.056649    41.056649    82.113297 
   10500    741.94913   -25551.289   -26318.429    289.36323    534.86813    457.16973   -123.94818    41.056557    41.056557    82.113113 
   10600     742.9934   -25551.164   -26319.384    259.62611    23.989796    520.23219    234.65635    41.057471    41.057471    82.114943 
   10700    744.67663   -25551.074   -26321.034    106.46203    124.18407     210.1558   -14.953774    41.058749    41.058749    82.117498 
   10800    749.28468    -25550.96   -26325.685    -75.61499     276.6755   -292.22654   -211.29393    41.060225    41.060225     82.12045 
   10900     742.6122   -25550.895   -26318.721    94.955614    85.418971    410.90355   -211.45568    41.060929    41.060929    82.121857 
   11000    756.88162   -25550.842   -26333.421   -322.48471   -432.61516   -116.20553   -418.63343    41.061009    41.061009    82.122019 
   11100    752.75702     -25550.8   -26329.114   -76.777642    248.28662    -204.1806   -274.43895     41.06022     41.06022    82.120441 
   11200    758.08586   -25550.731   -26334.556   -152.55716    -61.58262   -372.36339   -23.725469    41.059472    41.059472    82.118943 
   11300    747.03421   -25550.722   -26323.119     85.18064    7.2931766    303.04087   -54.792132    41.058375    41.058375    82.116751 
   11400    753.40114    -25550.69    -26329.67     3.821449    116.44105   -14.264781   -90.711921    41.057863    41.057863    82.115727 
   11500    753.98301   -25550.697   -26330.279    46.778903    58.396154   -149.24167    231.18223    41.057673    41.057673    82.115346 
   11600     739.8687   -25550.712   -26315.701    447.63126    362.83898    603.14478    376.91001    41.057987    41.057987    82.115974 
   11700    753.91856    -25550.73   -26330.245   -84.973173   -262.81197   -122.67464    130.56709    41.059205    41.059205    82.118411 
   11800    749.91169   -25550.766   -26326.139    -60.99375   -333.99067    -54.07055    205.07997    41.060506    41.060506    82.121011 
   11900    746.26895   -25550.769   -26322.376   -73.088221   -279.28048    350.81834   -290.80253    41.061552    41.061552    82.123105 
   12000    753.94707   -25550.782   -26330.327   -178.99353   -90.119224   -165.73058   -281.13079     41.06153     41.06153     82.12306 
   12100    744.51829   -25550.792   -26320.588    63.554327    184.38208    34.673658   -28.392757    41.060672    41.060672    82.121343 
   12200    755.56355   -25550.777   -26331.993   -129.96073    72.187483   -160.49626   -301.57341    41.059527    41.059527    82.119054 
   12300    748.17371    -25550.77   -26324.345    145.69467    85.511764   -197.03011    548.60237    41.058321    41.058321    82.116643 
   12400    757.82579   -25550.781   -26334.337   -76.536035   -437.43046   -288.92849    496.75084    41.057648    41.057648    82.115296 
   12500    749.36987   -25550.786   -26325.598    106.25377    53.189672    198.53552    67.036111    41.057752    41.057752    82.115504 
   12600    749.96196   -25550.789   -26326.214    54.403655    82.464098   -355.06284     435.8097    41.058444    41.058444    82.116888 
   12700    748.58052   -25550.794    -26324.79   0.84835479   -198.96967   -5.6995268    207.21426    41.059309    41.059309    82.118618 
   12800    748.98421   -25550.773   -26325.187   -14.243135    76.844835    61.011835   -180.58608    41.060072    41.060072    82.120144 
   12900    750.08893   -25550.751   -26326.306   -86.858062   -190.02405   -110.67451    40.124381      41.0604      41.0604    82.120799 
   13000    746.57422   -25550.722   -26322.644    93.197302   -251.92275    112.96142    418.55323    41.060291    41.060291    82.120583 
   13100    749.60124    -25550.69   -26325.742   -38.344632   -75.450346   -244.38113    204.79758    41.060148    41.060148    82.120297 
   13200    743.27529   -25550.649    -26319.16    196.56006   -153.80823     374.8145     368.6739    41.059899    41.059899    82.119797 
   13300    749.16454   -25550.617   -26325.217    19.370559   -73.644425    76.341054    55.415047    41.059736    41.059736    82.119472 
   13400    748.49041   -25550.585   -26324.488    -2.949719   -237.43974    287.89123   -59.300646    41.059791    41.059791    82.119582 
   13500    757.07314   -25550.563    -26333.34   -200.04697   -446.59821    7.3435139    -160.8862    41.059734    41.059734    82.119468 
   13600    748.20052   -25550.585   -26324.188    12.130973   -503.49282    367.98739    171.89835    41.059107    41.059107    82.118214 
   13700    753.62772   -25550.585     -26329.8   -50.347577   -139.99522   -200.13821     189.0907    41.058501    41.058501    82.117003 
   13800    740.16775   -25550.578   -26315.876    237.77748    386.93066    9.6429835    316.75881    41.058042    41.058042    82.116084 
   13900    749.79595   -25550.561   -26325.814    29.987888   -48.537176    252.91084      -114.41    41.057796    41.057796    82.115593 
   14000    757.31394   -25550.523    -26333.55    -139.1701    52.651653   -489.70995    19.547997    41.058038    41.058038    82.116076 
   14100    753.77593    -25550.51   -26329.878   -30.315818   -262.49632   -125.98758    297.53644    41.058456    41.058456    82.116912 
   14200     755.9585   -25550.479   -26332.104   -94.955137   -65.603539   -39.462055   -179.79982    41.059528    41.059528    82.119056 
   14300     750.5058    -25550.51   -26326.496   -68.936061     102.3398   -66.262069   -242.88592    41.060182    41.060182    82.120364 
   14400    750.44022   -25550.513   -26326.433   -41.582153    325.46868   -237.77445   -212.44069    41.060882    41.060882    82.121764 
   14500    756.02727   -25550.488   -26332.184   -216.27594    150.18261    -392.4883   -406.52212    41.061451    41.061451    82.122903 
   14600    756.89953   -25550.503   -26333.101   -304.50243   -34.477826   -481.43913   -397.59034    41.060912    41.060912    82.121824 
   14700    752.91909    -25550.52   -26329.002   -76.870394    -19.64782    112.28054    -323.2439    41.059457    41.059457    82.118914 
   14800    751.09718   -25550.544   -26327.142    3.3161364    256.77463     123.4474   -370.27362     41.05781     41.05781    82.115621 
   14900    751.93207   -25550.526   -26327.988    1.5663807    -175.6997    284.02192   -103.62308    41.057053    41.057053    82.114106 
   15000    741.87566   -25550.526    -26317.59    296.13215    228.13478    468.46897    191.79271    41.056786    41.056786    82.113572 
   15100    755.04543    -25550.53    -26331.21   -125.31889    301.55613   -676.87112  -0.64167909    41.057124    41.057124    82.114249 
   15200    753.61642   -25550.502   -26329.706   -10.905898   -492.67068    264.15199    195.80099    41.058042    41.058042    82.116083 
   15300    752.79715   -25550.496   -26328.852   -53.016717   -271.47144    48.272645    64.148647    41.059284    41.059284    82.118568 
   15400    755.16381   -25550.507    -26331.31   -149.48399    14.606045    99.922226   -562.98023    41.060554    41.060554    82.121108 
   15500    745.17055    -25550.52   -26320.991    18.939287   -547.86532    360.34451    244.33867    41.061422    41.061422    82.122844 
   15600    764.25981   -25550.511   -26340.719    -463.9929   -352.24241   -367.89228     -671.844     41.06171     41.06171    82.123419 
   15700    749.69519   -25550.516   -26325.665   -29.381754   -90.895831   -112.57832    115.32889     41.06101     41.06101    82.122021 
   15800    753.12995   -25550.508   -26329.208    -81.61439   -29.240383   -159.82101   -55.781777    41.060104    41.060104    82.120208 
   15900    756.45253     -25550.5   -26332.636   -138.83633    17.361361   -113.73703   -320.13331     41.05935     41.05935      82.1187 
   16000    754.23365   -25550.495   -26330.337   -98.931274   -280.79053   -59.470712    43.467419    41.058946    41.058946    82.117891 
   16100    756.07042   -25550.484   -26332.224   -47.563071    106.34647   -140.56754   -108.46815    41.059013    41.059013    82.118025 
   16200    754.18873   -25550.482   -26330.277   -173.31995    -327.6577    103.74742   -296.04956    41.059366    41.059366    82.118732 
   16300    755.11169   -25550.493   -26331.242   -122.37651     96.11882     26.39084   -489.63919    41.059579    41.059579    82.119158 
   16400    748.86239    -25550.53   -26324.817    59.831699   -118.08404    433.50656   -135.92743    41.059451    41.059451    82.118902 
   16500    748.98181   -25550.534   -26324.945    26.605997    73.062603    87.947144   -81.191755    41.059619    41.059619    82.119239 
   16600    743.21252   -25550.533   -26318.979     119.5213    234.24915    46.592887    77.721856     41.05989     41.05989    82.119781 
   16700    749.73509   -25550.548   -26325.738   -1.8272099    135.20958    149.00574   -289.69695    41.060129    41.060129    82.120259 
   16800    738.56627    -25550.56   -26314.202     218.0361    224.29723    145.91111    283.89995    41.060267    41.060267    82.120534 
   16900    753.23301   -25550.551   -26329.358   -78.858944    175.10555   -468.87756    57.195174    41.060347    41.060347    82.120694 
   17000    752.08723   -25550.582   -26328.204   -32.008984   -163.55577   -101.28688    168.81569    41.059889    41.059889    82.119778 
   17100     750.6803   -25550.633     -26326.8   0.97748306    124.28614    81.255002   -202.60869      41.0591      41.0591    82.118199 
   17200    736.57932     -25550.7   -26312.287    420.40358    284.09852    310.11847    666.99376    41.058492    41.058492    82.116984 
   17300    757.51185   -25550.747   -26333.978   -117.73358   -111.23073   -312.27961    70.309597    41.058618    41.058618    82.117236 
   17400    738.75449   -25550.792   -26314.629    342.58256    269.58411       164.16    594.00356    41.058898    41.058898    82.117796 
   17500     755.1271   -25550.804   -26331.569   -147.70197   -426.12472    4.7528917   -21.734094    41.059909    41.059909    82.119817 
   17600    754.01127    -25550.79   -26330.401   -168.12644   -673.91534   -97.079038    266.61507    41.061143    41.061143    82.122286 
   17700    745.95261   -25550.815   -26322.094    62.754852   -278.29117   -20.645432    487.20116     41.06152     41.06152    82.123041 
   17800     749.5699   -25550.883   -26325.902    -121.4904    168.45298    -214.8671   -318.05706    41.061076    41.061076    82.122153 
   17900    744.05905   -25550.924   -26320.245    78.240488   -58.688159    423.55976   -130.15014    41.059993    41.059993    82.119987 
   18000    751.05059   -25550.925   -26327.475   -54.224063   -166.18045    334.68329   -331.17503    41.058705    41.058705    82.117409 
   18100    747.96154   -25550.935   -26324.291    113.55605   -197.32122     269.7233    268.26606    41.057296    41.057296    82.114592 
   18200    755.05857   -25550.958   -26331.652   -3.3066136   -128.12262   -148.23709    266.43987    41.056394    41.056394    82.112787 
   18300    750.61452   -25550.968   -26327.067     159.0244   -21.590239    41.644691    457.01874    41.056487    41.056487    82.112975 
   18400    759.25097   -25550.979   -26336.008   -187.73037   -236.92433   -15.490922   -310.77587    41.057553    41.057553    82.115106 
   18500    758.74477    -25550.99   -26335.496   -255.77635   -141.28668   -282.41707    -343.6253    41.058818    41.058818    82.117637 
   18600    755.01842   -25551.042   -26331.695   -170.98071   -300.52669   -249.58147    37.166017    41.059713    41.059713    82.119426 
   18700    749.17924   -25551.085     -26325.7   -15.343463    -237.6695   -13.211846    204.85095    41.060455    41.060455     82.12091 
   18800    754.16168   -25551.132   -26330.899   -206.86283   -480.33339     55.23464   -195.48975    41.060702    41.060702    82.121404 
   18900     753.4703   -25551.159   -26330.211   -156.24377   -108.52305   -155.59331   -204.61494    41.060367    41.060367    82.120734 
   19000    751.38623   -25551.152   -26328.049   -18.696693   -224.67311    290.14546   -121.56244    41.059871    41.059871    82.119743 
   19100    749.27466   -25551.143   -26325.857    2.8600227   -72.449896   -125.90113     206.9311    41.059238    41.059238    82.118476 
   19200    741.81694   -25551.134   -26318.137    311.31385    28.051725     325.1992    580.69062    41.058546    41.058546    82.117092 
   19300    754.74265   -25551.093   -26331.461   -69.593936   -469.30603    148.10968    112.41455    41.058754    41.058754    82.117509 
   19400    756.47331   -25551.068   -26333.225   -171.18949   -258.85703   -359.40957    104.69815    41.059222    41.059222    82.118445 
   19500    745.21977   -25551.056   -26321.577    133.64638    247.83315   -68.572948    221.67895    41.059623    41.059623    82.119246 
   19600    749.12056   -25551.065   -26325.619   -20.605196    37.571246    71.444315   -170.83115    41.059966    41.059966    82.119931 
   19700    746.99388   -25551.086   -26323.442     48.31006    -449.0214    81.615494    512.33608    41.059805    41.059805    82.119611 
   19800    750.78469   -25551.086   -26327.361   -41.726364   -234.73151    33.933422    75.618995    41.059412    41.059412    82.118824 
   19900    755.94576   -25551.089   -26332.701   -104.26766    189.26558   -252.81219   -249.25638    41.058676    41.058676    82.117352 
   20000    750.09555   -25551.072   -26326.634    85.900968    341.84081   -180.16672    96.028816    41.058471    41.058471    82.116942 
   20100    752.97096   -25551.053   -26329.589   -4.0099218    64.202023    102.84744   -179.07923    41.059007    41.059007    82.118015 
   20200    753.26845   -25551.031   -26329.874   -161.80574    152.56036   -527.39858   -110.57899    41.059847    41.059847    82.119695 
   20300    749.44963   -25550.978   -26325.873   -165.84356    191.07837   -406.68493   -281.92412    41.060492    41.060492    82.120983 
   20400    752.24225   -25550.929   -26328.711   -178.39942    92.608405   -184.80101   -443.00566    41.060326    41.060326    82.120652 
   20500    751.06112   -25550.917   -26327.478   -52.031561   -110.22043    -37.41315   -8.4611057     41.05933     41.05933     82.11866 
   20600    754.08384   -25550.899   -26330.586     3.304496    141.09142   -205.75262    74.574681    41.058444    41.058444    82.116887 
   20700     747.1192    -25550.92   -26323.405    118.68475    204.01673   -96.145427    248.18295    41.057845    41.057845     82.11569 
   20800    745.21484   -25550.876   -26321.393    173.11371    506.93453    50.355907    -37.94931    41.058232    41.058232    82.116465 
   20900    748.04278   -25550.875   -26324.315    47.996842   -199.45159   -25.996402    369.43852    41.058789    41.058789    82.117577 
   21000    757.37364   -25550.899   -26333.987   -173.32122   -280.13691   -191.80672   -48.020022    41.059162    41.059162    82.118324 
   21100    757.58821   -25550.917   -26334.227   -240.71871   -46.664273   -338.33545   -337.15641    41.059468    41.059468    82.118936 
   21200    754.60463   -25550.922   -26331.146   -150.60714   -262.01724   -300.82876    111.02459    41.059587    41.059587    82.119174 
   21300    746.38733   -25550.892    -26322.62    69.069397    40.162761    52.960899    114.08453    41.059652    41.059652    82.119304 
   21400    756.62766    -25550.82   -26333.137   -221.13186   -538.67347    77.533187    -202.2553    41.059967    41.059967    82.119935 
   21500    744.34512    -25550.78   -26320.397    148.60648    342.01806    91.621167    12.180229    41.059773    41.059773    82.119547 
   21600    746.67326   -25550.739   -26322.763    19.259237    340.74617   -24.772078   -258.19638    41.059604    41.059604    82.119208 
   21700    747.78536   -25550.722   -26323.896    55.738879    389.66163   -223.90423    1.4592419    41.059093    41.059093    82.118185 
   21800    743.73394   -25550.708   -26319.693    215.87678    546.51211   -86.779578     187.8978    41.058457    41.058457    82.116914 
   21900    745.89733   -25550.693   -26321.915    121.85642    241.26833    78.392598    45.908322    41.058272    41.058272    82.116543 
   22000    760.58953   -25550.681   -26337.094   -181.08338   -405.17126   -155.84997    17.771092    41.058353    41.058353    82.116706 
   22100    743.08804   -25550.707   -26319.024    169.97956    93.472719    280.33378    136.13219    41.058494    41.058494    82.116987 
   22200    748.90214   -25550.709   -26325.038    78.327376    69.669083   -372.55407    537.86712    41.059047    41.059047    82.118095 
   22300    755.55926   -25550.739   -26331.951   -207.06816   -418.38583   -323.15018    120.33153    41.059422    41.059422    82.118844 
   22400    747.34113   -25550.743   -26323.458    78.532902   -182.40759     11.24521    406.76108    41.059649    41.059649    82.119298 
   22500    754.60629   -25550.748   -26330.975   -137.14264     -446.774   -128.33776    163.68385    41.059594    41.059594    82.119188 
   22600    749.81011   -25550.739   -26326.006   -44.319993   -48.164841    233.73807    -318.5332    41.059363    41.059363    82.118726 
   22700    755.84316   -25550.747   -26332.253   -144.06554   -188.47074   -135.78994   -107.93592    41.058818    41.058818    82.117636 
   22800    754.45515   -25550.783   -26330.853   -11.129466    97.760477   -415.83687      284.688    41.057948    41.057948    82.115897 
   22900    742.73119   -25550.813   -26318.761    258.94748   -87.930553    624.63712    240.13586    41.057467    41.057467    82.114933 
   23000    759.67983   -25550.793   -26336.266   -178.39795   -161.84735    9.0056829   -382.35219    41.058043    41.058043    82.116086 
   23100     747.4957   -25550.801   -26323.676    60.985589   -339.73213    618.83292   -96.144029    41.058845    41.058845    82.117689 
   23200    756.90067    -25550.79   -26333.389   -242.64367   -318.66706    171.71039   -580.97435    41.059861    41.059861    82.119722 
   23300    749.02222   -25550.777    -26325.23   -64.377083   -108.45901    321.94078   -406.61302    41.060417    41.060417    82.120834 
   23400    750.69205   -25550.772   -26326.951   -97.221457    56.340277    2.1121456   -350.11679    41.060472    41.060472    82.120945 
   23500    747.16813   -25550.799   -26323.335    51.318313   -168.47799    456.52258   -134.08965     41.05972     41.05972     82.11944 
   23600    747.81159     -25550.8   -26324.001    81.599859    37.531833    246.24699   -38.979243    41.059035    41.059035    82.118071 
   23700    747.03658   -25550.807   -26323.207    63.961874     170.0922    171.83534   -150.04191    41.058636    41.058636    82.117272 
   23800    756.75659   -25550.838   -26333.288   -146.45375   -59.804665   -396.08342    16.526836    41.058167    41.058167    82.116334 
   23900    743.13035   -25550.873   -26319.234    159.17615    151.19988    176.11396    150.21461    41.057965    41.057965    82.115931 
   24000    752.54214   -25550.914   -26329.007    17.409242    120.51192   -106.01007    37.725882    41.058106    41.058106    82.116212 
   24100    751.68578   -25550.967   -26328.174   -17.638057   -25.011532   -178.56978    150.66714    41.058557    41.058557    82.117114 
   24200    751.20364   -25550.996   -26327.705   -28.287785   -161.68712   -327.06068    403.88445    41.059554    41.059554    82.119109 
   24300    749.61027   -25551.039     -26326.1   -26.692066    189.34804   -252.05088   -17.373356    41.060371    41.060371    82.120743 
   24400    744.51718    -25551.08   -26320.875    128.94177    235.45592   -87.182798    238.55219    41.060982    41.060982    82.121964 
   24500    743.96825   -25551.121   -26320.349    31.625443    326.42038    74.530224   -306.07427      41.0612      41.0612      82.1224 
   24600    746.36582   -25551.134    -26322.84    14.687369   -352.90622   -239.66452    636.63285    41.060767    41.060767    82.121533 
   24700    755.64236   -25551.138   -26332.436   -159.36984   -163.49937   -179.35455   -135.25561    41.059749    41.059749    82.119499 
   24800    742.15698   -25551.148   -26318.502    165.40224    225.41413   -209.19198    479.98458    41.058397    41.058397    82.116794 
   24900    752.49047   -25551.154   -26329.193    23.930004    451.28849   -422.31061    42.812131    41.057234    41.057234    82.114468 
   25000    749.88388   -25551.179   -26326.523    106.06868   -213.93952    521.67534    10.470226    41.056412    41.056412    82.112825 
   25100    751.84941   -25551.188   -26328.564    34.780855    42.020107    236.97656    -174.6541    41.056528    41.056528    82.113056 
   25200     752.6976   -25551.199   -26329.452    -5.868103    147.74551   -605.30996    439.96014    41.057249    41.057249    82.114499 
   25300    749.56884   -25551.207   -26326.225     72.93003   -240.87884     254.1774    205.49154    41.058372    41.058372    82.116743 
   25400    748.63202   -25551.209   -26325.258    -15.51157    315.11227   -138.22573   -223.42125    41.059697    41.059697    82.119394 
   25500    737.48986   -25551.231    -26313.76    248.63871    199.87535    88.872013    457.16878    41.060294    41.060294    82.120588 
   25600    748.66768   -25551.214     -26325.3   -132.03626   -66.471369   -334.96173    5.3243248    41.060571    41.060571    82.121142 
   25700    752.38167   -25551.215   -26329.141   -162.39815   -218.99715   -606.05375    337.85645    41.059756    41.059756    82.119513 
   25800    748.35181   -25551.205   -26324.965    19.085538    400.53468   -42.604564    -300.6735     41.05838     41.05838    82.116759 
   25900    750.64792   -25551.194   -26327.328    1.5080589    462.65396   -259.79188   -198.33791     41.05699     41.05699     82.11398 
   26000    747.80367   -25551.189   -26324.382    158.04022    16.750631    357.21478    100.15526     41.05592     41.05592    82.111839 
   26100    754.97942   -25551.202   -26331.815    60.156146    288.58788   -97.162145   -10.957296    41.055468    41.055468    82.110935 
   26200    756.97036   -25551.222   -26333.893   -117.81702   -180.09501   -92.495257   -80.860784    41.055999    41.055999    82.111999 
   26300    746.85272   -25551.212   -26323.422    133.36888    401.24704    218.75176   -219.89214    41.057225    41.057225    82.114449 
   26400    756.18553   -25551.239   -26333.098   -169.12441    23.565075   -76.646698    -454.2916    41.058356    41.058356    82.116712 
   26500    758.68571   -25551.227   -26335.672   -252.38086    194.33637   -294.88776   -656.59118    41.059615    41.059615     82.11923 
   26600    740.89342   -25551.209   -26317.257    202.57738    205.88665    257.19382    144.65166    41.060645    41.060645     82.12129 
   26700     754.3227   -25551.181   -26331.114   -114.50314    245.44338    51.594902   -640.54769    41.061429    41.061429    82.122858 
   26800    758.94602   -25551.165   -26335.879   -230.86967   -345.16136   -282.33881   -65.108837    41.061546    41.061546    82.123091 
   26900     743.2674   -25551.174   -26319.676    113.63871   -148.04724    272.52381    216.43956    41.060976    41.060976    82.121952 
   27000     755.2073   -25551.166   -26332.014   -235.03784   -844.92617    18.410373    121.40226    41.060151    41.060151    82.120301 
   27100    750.61337   -25551.187   -26327.285    15.432273    147.76106    44.495262   -145.95951    41.058804    41.058804    82.117608 
   27200    743.98566   -25551.201   -26320.447    199.26447    201.23989    389.43108    7.1224331    41.057812    41.057812    82.115624 
   27300    753.93367    -25551.21   -26330.741   -29.856147    81.895979   -507.32355    335.85913    41.057421    41.057421    82.114842 
   27400    751.39134   -25551.228   -26328.131    77.034836     74.92501    74.037755    82.141742     41.05744     41.05744     82.11488 
   27500    748.75971   -25551.255   -26325.437     100.7639   -103.66882    193.13921    212.82133    41.058025    41.058025    82.116049 
   27600    752.74195   -25551.281    -26329.58   -130.44947    205.71358   -221.84136   -375.22063    41.059092    41.059092    82.118184 
   27700    748.61645   -25551.305   -26325.339   -4.1737018   -300.25728    382.57154   -94.835369    41.059919    41.059919    82.119837 
   27800    742.27429   -25551.308   -26318.784    127.42241    203.09285    379.76206   -200.58768    41.060541    41.060541    82.121083 
   27900    742.29005   -25551.297   -26318.789    118.80901    353.14019   -40.396793    43.683636    41.060855    41.060855    82.121709 
   28000     741.9222   -25551.268    -26318.38    129.45828    282.42534    15.763681    90.185826    41.060773    41.060773    82.121546 
   28100    746.98425   -25551.235    -26323.58    5.8126302    184.54071   -89.510516   -77.592305    41.060465    41.060465     82.12093 
   28200    753.00309   -25551.203   -26329.772   -103.41354    171.49369   -114.35376   -367.38053    41.059708    41.059708    82.119416 
   28300    748.12625   -25551.184   -26324.711    4.6252966   -34.098244    244.57484   -196.60071    41.058704    41.058704    82.117407 
   28400    754.89455   -25551.121   -26331.646   -84.273662   -214.31104   -217.54838    179.03843       41.058       41.058       82.116 
   28500    752.21456   -25551.095   -26328.848    15.670142    441.64491   -233.53166   -161.10282     41.05726     41.05726    82.114519 
   28600    749.48327   -25551.089   -26326.018    52.079748    29.207226   -107.12243    234.15445    41.056883    41.056883    82.113765 
   28700    753.82017   -25551.065   -26330.479   -68.826122   -170.48417   -172.49945    136.50525    41.057519    41.057519    82.115037 
   28800    755.62629   -25551.047   -26332.328   -147.71046   -241.87874    -95.55502   -105.69761    41.058636    41.058636    82.117272 
   28900    755.75245   -25551.015   -26332.426   -252.89051   -506.49661   -158.72269   -93.452234    41.059797    41.059797    82.119594 
   29000     744.7984   -25550.958   -26321.044    51.854719    466.66507   -287.70628   -23.394626    41.060705    41.060705     82.12141 
   29100    750.04349   -25550.917   -26326.426   -106.71514    259.32411   -453.82613   -125.64339    41.061096    41.061096    82.122192 
   29200     758.9831   -25550.866   -26335.618   -273.34325   -605.64173    -299.8599    85.471889    41.061035    41.061035    82.122069 
   29300    750.26863   -25550.822   -26326.564   -73.088233    56.611818   -171.83195   -104.04457    41.060338    41.060338    82.120675 
   29400    751.78648   -25550.781   -26328.092   -60.536586   -193.52806    392.95661    -381.0383    41.059301    41.059301    82.118601 
   29500    751.70911   -25550.756   -26327.987    -67.80768   -174.12415   -58.068342    28.769457    41.057955    41.057955    82.115909 
   29600    754.96199   -25550.701   -26331.296   -52.697869   -104.94739   -103.67031    50.524094    41.056903    41.056903    82.113805 
   29700     745.0292   -25550.664   -26320.988    266.96779    314.19573    235.79369    250.91396    41.056387    41.056387    82.112773 
   29800    752.18626   -25550.619   -26328.344   -27.129782   -70.056894    429.39592   -440.72837    41.056858    41.056858    82.113716 
   29900    744.52074   -25550.596   -26320.395    176.18611    76.604436    268.92579     183.0281    41.057378    41.057378    82.114755 
   30000    746.13285   -25550.586   -26322.051     44.22337   -142.39445    131.89222    143.17233    41.058015    41.058015     82.11603 
   30100    744.77021    -25550.57   -26320.627    110.49145   -96.501999    565.12972   -137.15336    41.058662    41.058662    82.117324 
   30200    749.21082   -25550.532    -26325.18    34.424523    102.78609   -68.708768    69.196242    41.059406    41.059406    82.118811 
   30300    747.52662     -25550.5   -26323.407    35.601909   -360.69215    538.44809    -70.95021    41.060075    41.060075    82.120149 
   30400    744.06124   -25550.472   -26319.796    221.39793   -149.14733    61.110999    752.23014    41.060727    41.060727    82.121453 
   30500    748.51759   -25550.449    -26324.38    23.261385   -492.30886   -144.79906    706.89207    41.061466    41.061466    82.122932 
   30600    758.03291   -25550.435   -26334.204   -337.49387   -685.68498   -45.459728   -281.33691    41.061803    41.061803    82.123606 
   30700     745.5665   -25550.481   -26321.361    6.6164377   -228.47318    281.14887   -32.826381    41.060709    41.060709    82.121418 
   30800    755.69478   -25550.543   -26331.895   -123.89608   -135.00247   -56.570451   -180.11531    41.059194    41.059194    82.118389 
   30900    747.24203   -25550.618   -26323.231    188.58255    297.15098     478.8862   -210.28952    41.057824    41.057824    82.115648 
   31000    753.94468   -25550.634   -26330.176    54.362716    5.0012093   -274.29225    432.37919     41.05773     41.05773     82.11546 
   31100    749.44156   -25550.649   -26325.536    70.520901   -322.35487    213.61207     320.3055    41.058436    41.058436    82.116871 
   31200    753.21891   -25550.698    -26329.49     -133.699   -222.44598   -22.044078   -156.60694    41.059274    41.059274    82.118548 
   31300    737.93745   -25550.736   -26313.727    244.39475    380.67476    201.39255    151.11695    41.059919    41.059919    82.119838 
   31400    752.17832   -25550.715   -26328.431   -154.06869   -427.73338   -437.04393    402.57125    41.060481    41.060481    82.120962 
   31500    747.90062   -25550.706   -26323.999    -22.50671   -306.97648    403.89496   -164.43861    41.060127    41.060127    82.120254 
   31600    744.22815   -25550.693   -26320.189     191.6249     638.3431    468.09384   -531.56224    41.059409    41.059409    82.118818 
   31700    759.26985    -25550.68   -26335.728   -296.82534   -392.22819    52.620038   -550.86788    41.058829    41.058829    82.117658 
   31800    742.90003   -25550.668   -26318.791    226.28927    201.55571    402.16129    75.150805     41.05817     41.05817     82.11634 
   31900    754.78943   -25550.622   -26331.038   -103.33244   -85.761403   -212.71613   -11.519793    41.058225    41.058225     82.11645 
   32000    749.58405   -25550.607   -26325.641   -8.2775335   -291.42983    607.84468   -341.24745    41.058184    41.058184    82.116369 
   32100    751.14447   -25550.595   -26327.242    5.4764827   -116.09386    171.96238   -39.439071    41.058128    41.058128    82.116256 
   32200    751.24531   -25550.567   -26327.319    117.35681    104.57758     530.8459   -283.35306    41.058285    41.058285     82.11657 
   32300    746.21119   -25550.575   -26322.122    86.026142   -347.05257    306.01712    299.11387    41.058414    41.058414    82.116829 
   32400    750.91862   -25550.588   -26327.002    20.935953   -299.60623    133.67429     228.7398    41.058462    41.058462    82.116923 
   32500    749.41972   -25550.588   -26325.452    61.441019   -301.11488    344.92847    140.50947    41.058694    41.058694    82.117387 
   32600     745.6378   -25550.608   -26321.562    97.171387    192.05946   -266.50806    365.96276    41.059033    41.059033    82.118066 
   32700    745.63511   -25550.598   -26321.549    133.38052   -232.41285    273.26523    359.28918    41.059551    41.059551    82.119102 
   32800     753.3961   -25550.587   -26329.563   -184.07354   -234.39785    -260.7317   -57.091073    41.059909    41.059909    82.119818 
   32900    746.33667   -25550.565   -26322.241    95.148379    332.91306    54.065939   -101.53386     41.05984     41.05984     82.11968 
   33000    741.90923   -25550.571    -26317.67    194.89213    435.35334    169.68512    -20.36208    41.059439    41.059439    82.118878 
   33100     748.2899   -25550.548   -26324.244    14.958496   -334.94679    350.94878      28.8735    41.059272    41.059272    82.118543 
   33200    756.30379    -25550.54   -26332.521   -132.45079   -264.91587    133.20461   -265.64109    41.058882    41.058882    82.117764 
   33300    754.93664   -25550.539   -26331.107   -29.099034    128.74396   -88.085574   -127.95549    41.058457    41.058457    82.116913 
   33400    747.89337   -25550.549   -26323.835    97.913147    133.96365    207.87596    -48.10017    41.058465    41.058465    82.116929 
   33500    749.88249   -25550.542   -26325.884    46.592204    343.80054    395.07267    -599.0966    41.059106    41.059106    82.118213 
   33600    752.96872   -25550.546   -26329.079   -117.38924    14.621884   -54.627851   -312.16176    41.059678    41.059678    82.119356 
   33700    752.82055   -25550.546   -26328.926   -95.038272    88.593791   -45.145875   -328.56273    41.060166    41.060166    82.120331 
   33800    747.94289   -25550.544   -26323.881   -68.351576   -208.78931    5.9747091   -2.2401215    41.060341    41.060341    82.120681 
   33900    745.18762   -25550.501   -26320.989    72.108569   -293.02486     74.65821    434.69235    41.060311    41.060311    82.120621 
   34000    737.38979   -25550.492   -26312.917    252.39765    23.504605    370.19576    363.49258    41.059655    41.059655     82.11931 
   34100    746.07953    -25550.43   -26321.841    57.680789    105.99597    -94.36977    161.41617    41.059158    41.059158    82.118316 
   34200    755.86681   -25550.387   -26331.917   -137.64017   -253.52499   -427.75209    268.35656    41.058496    41.058496    82.116991 
   34300    753.49407   -25550.392   -26329.469   -35.596292   -540.48817    38.357192     395.3421    41.057828    41.057828    82.115655 
   34400    749.70592   -25550.413   -26325.573    135.23022   -341.39622    524.04452    223.04234    41.057518    41.057518    82.115036 
   34500    746.25213   -25550.426   -26322.015    110.26132   -115.44673    417.59309     28.63761    41.057895    41.057895    82.115791 
   34600    753.65835   -25550.404    -26329.65   -139.10133   -487.08758   -347.21919    417.00277    41.058767    41.058767    82.117534 
   34700    754.05489   -25550.408   -26330.064   -133.92552     -71.0011   -450.14448    119.36901    41.059205    41.059205    82.118409 
   34800    746.70567   -25550.438   -26322.495    85.832786   -5.9583581    556.24832    -292.7916    41.059109    41.059109    82.118218 
   34900    751.03718   -25550.458   -26326.994   -72.809744   -98.586208   -64.484818   -55.358205    41.059107    41.059107    82.118213 
   35000    759.34488   -25550.474     -26335.6   -206.89454   -210.69373   -127.00029    -282.9896    41.059111    41.059111    82.118222 
   35100    743.87689   -25550.496   -26319.629    224.85356    292.89846    170.32336    211.33885    41.058936    41.058936    82.117873 
   35200     753.4374   -25550.507   -26329.525   -119.87942   -203.98552   -371.41629    215.76355    41.059166    41.059166    82.118333 
   35300    757.04177   -25550.537   -26333.282   -246.41621    -68.49854   -39.868174   -630.88191    41.059257    41.059257    82.118513 
   35400    744.68027   -25550.562   -26320.526    175.88372    133.98906    94.270352    299.39174    41.059174    41.059174    82.118348 
   35500    751.87431   -25550.551   -26327.953   -60.640315   -50.408004   -150.24921    18.736274    41.059461    41.059461    82.118921 
   35600    745.50922   -25550.551   -26321.371     147.2342    184.86206    70.890984    185.94957    41.059487    41.059487    82.118975 
   35700    751.90892   -25550.541   -26327.979   -62.617438    279.70744   -386.99791   -80.561842    41.059601    41.059601    82.119203 
   35800    747.31901   -25550.566   -26323.258    115.17879   -122.07025    474.60915    -7.002527    41.059423    41.059423    82.118845 
   35900    749.23419   -25550.583   -26325.255    78.390632   -11.185442    129.65168    116.70566    41.059633    41.059633    82.119267 
   36000     760.3879   -25550.592   -26336.796   -306.65023   -23.701909   -294.78801   -601.46077     41.06022     41.06022    82.120439 
   36100    751.90572   -25550.597   -26328.031   -133.61991   -117.77442   -202.04471    -81.04059    41.060504    41.060504    82.121008 
   36200    744.56516   -25550.606   -26320.451    138.77701    205.55064    234.63917    -23.85878     41.06035     41.06035      82.1207 
   36300    754.02043   -25550.632   -26330.253   -132.12128    -29.14627   -42.220101   -324.99747    41.059896    41.059896    82.119792 
   36400    753.31329   -25550.649   -26329.539   -28.832755    251.10835    23.474498   -361.08112    41.059501    41.059501    82.119003 
   36500    746.97935    -25550.66   -26323.001    129.35255    257.07361    221.51362   -90.529593    41.059324    41.059324    82.118647 
   36600    746.64224   -25550.696   -26322.688    134.10676    249.41998   -16.321077    169.22139    41.059222    41.059222    82.118444 
   36700    752.37917   -25550.744   -26328.668   -59.282089   -165.56879   -110.76381    98.486325    41.059234    41.059234    82.118468 
   36800    750.63146   -25550.799   -26326.916   -18.971669   -570.21994    315.15702    198.14792    41.059273    41.059273    82.118545 
   36900     749.3502   -25550.839   -26325.631    49.384951   -12.085133   -270.05906    430.29904    41.059532    41.059532    82.119065 
   37000    757.93508   -25550.842   -26334.511   -217.49945   -425.60663   -320.31697    93.425239     41.06023     41.06023     82.12046 
   37100    753.17875   -25550.851   -26329.602   -188.67214   -440.64383    -253.2519    127.87931    41.060616    41.060616    82.121232 
   37200    751.83905     -25550.9   -26328.265   -97.015665    103.79648   -29.615471   -365.22801    41.060139    41.060139    82.120278 
   37300    751.86144   -25550.949   -26328.337   -51.292593   -121.39143    118.97452   -151.46088    41.059312    41.059312    82.118623 
   37400    749.56537   -25550.981   -26325.995    39.972881   -341.61472    70.889029    390.64434    41.058476    41.058476    82.116953 
   37500    739.78657   -25551.018   -26315.922    236.50314    322.70981   -6.2854854     393.0851    41.057686    41.057686    82.115372 
   37600    754.04435   -25551.011   -26330.656   -28.585174   -437.67195    284.74425    67.172179    41.057729    41.057729    82.115457 
   37700    760.99625   -25551.043   -26337.876   -258.64243   -480.70532   -248.57024    -46.65172    41.058159    41.058159    82.116318 
   37800    745.52225   -25551.069   -26321.903    55.962566   -46.404551    289.71402   -75.421774    41.058849    41.058849    82.117698 
   37900    749.53242   -25551.118   -26326.099    8.1795544   -203.47226    133.75576    94.255157     41.05913     41.05913    82.118259 
   38000    747.52454   -25551.157   -26324.061    6.3068208     38.40623    104.59729   -124.08306    41.059111    41.059111    82.118223 
   38100    751.42403   -25551.141   -26328.077   -54.025347   -611.97428    556.31464    -106.4164    41.059254    41.059254    82.118508 
   38200    749.91337   -25551.128   -26326.502    51.956941    -348.9648    589.44509   -84.609467    41.059357    41.059357    82.118714 
   38300    747.99449    -25551.12   -26324.511    14.058027   -272.89929    116.51372    198.55966    41.059571    41.059571    82.119142 
   38400    743.84577   -25551.126   -26320.227    184.75025    288.41958    123.23351    142.59765    41.059555    41.059555    82.119109 
   38500     750.1422   -25551.129    -26326.74    -102.8474    -320.4819   -95.047944    106.98765    41.059652    41.059652    82.119304 
   38600    751.71766   -25551.144   -26328.384   -108.00658    124.20331    -137.6306   -310.59245    41.059347    41.059347    82.118695 
   38700    748.23473   -25551.157   -26324.796    65.766401   -114.22788   -4.6523139     316.1794    41.058907    41.058907    82.117814 
   38800    753.50178   -25551.167   -26330.251   -91.404585    140.83072    -67.99728    -347.0472    41.058847    41.058847    82.117694 
   38900    752.41832   -25551.179   -26329.143   -128.17677    21.348914   -209.70257   -196.17665     41.05883     41.05883     82.11766 
   39000     751.0894   -25551.201   -26327.792   -44.417394   -38.714323    25.188939    -119.7268    41.058742    41.058742    82.117485 
   39100    747.84042   -25551.218   -26324.449   -6.1080565   -175.74449    525.07596   -367.65564    41.058791    41.058791    82.117581 
   39200    745.17965   -25551.245   -26321.725    119.71318    240.92279   -162.52273    280.73948    41.058563    41.058563    82.117126 
   39300     754.1475   -25551.278    -26331.03   -24.918128    174.99428   -272.43359    22.684927     41.05831     41.05831    82.116621 
   39400     752.0539   -25551.305   -26328.892     45.43024    79.829353   -232.67525    289.13662    41.058518    41.058518    82.117036 
   39500    743.91792   -25551.376   -26320.551    189.28608    125.50514    45.122346    397.23074    41.058741    41.058741    82.117482 
   39600    747.71536    -25551.44   -26324.541    16.536621    176.62634    152.36153     -279.378    41.059219    41.059219    82.118438 
   39700    748.66969    -25551.48   -26325.568   -29.476464    96.389993   -351.32722    166.50783     41.05965     41.05965      82.1193 
   39800    743.85757   -25551.468   -26320.581     96.17157   -8.4097094   -65.797477     362.7219    41.060094    41.060094    82.120188 
   39900    748.82361   -25551.455   -26325.703   -13.805625   -172.62037   -39.164462    170.36796    41.060344    41.060344    82.120687 
   40000    751.64032   -25551.431   -26328.591   -75.628139   -46.554237   -101.42573   -78.904453    41.060207    41.060207    82.120414 
   40100    751.84411   -25551.418   -26328.789   -73.045581    58.544517   -77.622081   -200.05918    41.059613    41.059613    82.119226 
   40200    749.24648   -25551.403   -26326.088    42.319364    187.50196    32.282272   -92.826144    41.058914    41.058914    82.117827 
   40300    745.50065   -25551.405   -26322.217    134.12512    341.21882    10.855991    50.300549    41.058342    41.058342    82.116684 
   40400    754.64094   -25551.392   -26331.654   -73.350116   -109.24676   -6.2983781   -104.50521    41.058235    41.058235    82.116469 
   40500     746.8142   -25551.415   -26323.584    131.79405    440.49737   -222.40947    177.29424    41.058271    41.058271    82.116542 
   40600    755.72588   -25551.392   -26332.777   -124.86767   -216.82547   -210.88829    53.110767    41.059076    41.059076    82.118153 
   40700    743.57399   -25551.413   -26320.233    109.61353   -192.30485    515.47293    5.6724966    41.059422    41.059422    82.118845 
   40800    764.26254   -25551.401   -26341.612   -358.70426   -121.38256   -586.75352   -367.97671    41.059637    41.059637    82.119273 
   40900    747.61796    -25551.43   -26324.431    9.7445561    110.32275   -200.28211    119.19302    41.059046    41.059046    82.118092 
   41000    747.88239   -25551.439   -26324.714    65.245617   -92.732008    316.49202   -28.023158    41.058495    41.058495    82.116989 
   41100    754.56309    -25551.43   -26331.612   -97.187087   -223.94485    36.557428   -104.17384    41.058364    41.058364    82.116728 
   41200    752.17449   -25551.409   -26329.122   -6.6059899    296.10319    9.2383861   -325.15955     41.05851     41.05851     82.11702 
   41300    749.16395   -25551.415   -26326.015    11.966972   -350.54636    280.87626    105.57101    41.058711    41.058711    82.117421 
   41400    742.31198   -25551.389   -26318.904    297.86135    436.29461    146.07173    311.21772    41.059323    41.059323    82.118647 
   41500    746.49044   -25551.375   -26323.211    23.703094   -320.98294   -46.265827    438.35805    41.060042    41.060042    82.120083 
   41600     748.9147   -25551.338    -26325.68   -66.414167   -120.14194     -265.093    185.99245    41.060534    41.060534    82.121068 
   41700    760.19257   -25551.338    -26337.34   -288.49775   -432.18282   -26.333067   -406.97736     41.06027     41.06027    82.120541 
   41800    754.52652   -25551.351   -26331.496   -84.069494    -294.1262   -32.858908    74.776627    41.059599    41.059599    82.119197 
   41900    744.48648   -25551.359   -26321.122    236.26175    217.34294    399.46067    91.981628    41.058991    41.058991    82.117981 
   42000    747.53274   -25551.382   -26324.295    129.04023     102.7993   -159.32226    443.64364    41.058582    41.058582    82.117163 
   42100    750.22884   -25551.446   -26327.146    -29.97605   -327.49602   -49.225868    286.79374    41.058169    41.058169    82.116338 
   42200    752.78688   -25551.458   -26329.803    -8.159473     504.7595   -160.29343   -368.94449    41.058072    41.058072    82.116144 
   42300    752.43464   -25551.488    -26329.47   -7.6371089    55.096091   -60.820099    -17.18732    41.058094    41.058094    82.116187 
   42400    754.87629   -25551.498   -26332.003   -78.959179    -123.3143   -57.445883   -56.117352    41.058649    41.058649    82.117297 
   42500    752.23836   -25551.514   -26329.292   -99.808335    245.84321   -203.23431   -342.03391    41.059263    41.059263    82.118526 
   42600    756.14788     -25551.5    -26333.32   -185.74533   -83.031911   -225.97756   -248.22651    41.059806    41.059806    82.119612 
   42700    748.43273   -25551.498   -26325.341   -32.356106     232.5016   -189.29711   -140.27281    41.059696    41.059696    82.119392 
   42800    742.36532   -25551.482   -26319.052    135.26076    65.313027      232.091    108.37825    41.059225    41.059225     82.11845 
   42900    759.29812   -25551.469   -26336.547   -242.98938   -109.06809   -170.88929   -449.01077    41.058477    41.058477    82.116954 
   43000    744.46642    -25551.47   -26321.212    165.50458    127.48063    147.08546    221.94765    41.057488    41.057488    82.114977 
   43100    750.86161   -25551.451   -26327.806    34.365627    281.45622   -268.20858    89.849239    41.057291    41.057291    82.114583 
   43200    749.99197   -25551.471   -26326.927    23.591077    20.252894   -81.570071    132.09041    41.057458    41.057458    82.114916 
   43300    748.81307   -25551.484   -26325.721     100.8262     50.18718    78.841638    173.44977    41.058179    41.058179    82.116358 
   43400    754.12924   -25551.473   -26331.207   -95.970562   -233.21491     103.7377   -158.43448    41.059549    41.059549    82.119097 
   43500    749.83881   -25551.463    -26326.76   -33.744454   -167.55591    199.34809   -133.02554    41.060694    41.060694    82.121389 
   43600    736.93042   -25551.407   -26313.358    208.69089    28.816949    70.086551    527.16916     41.06168     41.06168    82.123359 
   43700    751.79386   -25551.328   -26328.647   -166.82592   -328.48478   -93.342871   -78.650115    41.062033    41.062033    82.124066 
   43800    746.83258   -25551.275   -26323.464   -26.148786   -26.231193   -49.068284   -3.1468804    41.061124    41.061124    82.122248 
   43900    761.60621   -25551.191   -26338.655   -355.59772   -275.19497   -799.94097    8.3427845    41.059762    41.059762    82.119524 
   44000    748.80467   -25551.142    -26325.37    96.440936    74.024473     271.9938   -56.695465    41.057727    41.057727    82.115453 
   44100    750.92801   -25551.117   -26327.541    129.27722   -58.447375    128.62835    317.65068    41.055824    41.055824    82.111648 
   44200    752.22468   -25551.101   -26328.866    185.85375    288.85015    100.94687    167.76421    41.055047    41.055047    82.110094 
   44300    742.10503   -25551.105   -26318.406    449.84692    279.54444    498.00605    571.99027    41.055719    41.055719    82.111439 
   44400    758.13344   -25551.096   -26334.969   -236.62194   -54.513256   -664.14961    8.7970442    41.057991    41.057991    82.115981 
   44500    742.59774   -25551.087   -26318.897    130.90776   -17.795912   -80.376245    490.89544    41.060286    41.060286    82.120571 
   44600    744.44783   -25551.089   -26320.812   -12.005597    594.48145   -693.75611    63.257864    41.061837    41.061837    82.123673 
   44700    752.08041   -25551.089   -26328.704   -207.09991   -5.2800359   -817.01695    200.99726    41.062148    41.062148    82.124296 
   44800     750.5661   -25551.134   -26327.183   -58.178143   -191.25745   -281.18874    297.91176    41.061163    41.061163    82.122326 
   44900    754.19157   -25551.147   -26330.945   -81.849027    293.97821   -487.58857   -51.936722    41.060058    41.060058    82.120116 
   45000     749.1082   -25551.163   -26325.705    100.04653     297.7444   -376.84456    379.23973    41.058971    41.058971    82.117943 
   45100    753.56088   -25551.183   -26330.329    -47.67554   -168.23243    -126.3898    151.59561    41.058074    41.058074    82.116149 
   45200    751.25911   -25551.195   -26327.961   -9.0310013    141.99418   -198.39061    29.303417    41.057655    41.057655    82.115311 
   45300    746.16458   -25551.206   -26322.704    185.87693    611.51225    221.23004   -275.11148    41.057714    41.057714    82.115428 
   45400    745.61198   -25551.216   -26322.143     106.8768    260.69483   -108.01853    167.95409    41.058245    41.058245    82.116491 
   45500    749.26769   -25551.227   -26325.934    54.181504    320.72909    165.30694   -323.49152     41.05902     41.05902    82.118041 
   45600    750.72906   -25551.243   -26327.461     -58.9188   -327.06287   -232.59712    382.90359    41.059786    41.059786    82.119572 
   45700    744.30548   -25551.283    -26320.86    121.35598    2.6358174    158.99632     202.4358    41.060104    41.060104    82.120209 
   45800     747.3974   -25551.313   -26324.086    1.6110538   -354.84728   -168.78508    528.46551    41.060055    41.060055    82.120109 
   45900    750.73295   -25551.338   -26327.559   -78.500059   -131.57142   -275.21238    171.28362    41.059446    41.059446    82.118892 
   46000    751.52728   -25551.348   -26328.391   -37.828922   -268.68002       82.138    73.055259     41.05857     41.05857    82.117141 
   46100    744.99052   -25551.351   -26321.635     174.6631   -89.503672    200.45446    413.03851    41.057572    41.057572    82.115144 
   46200    753.56873   -25551.315   -26330.468    18.831031    48.766544   -153.40068    161.12723    41.057257    41.057257    82.114513 
   46300    738.79791   -25551.314   -26315.195    416.66369    310.27025    119.97228    819.74853     41.05724     41.05724    82.114479 
   46400     754.7859   -25551.315   -26331.728   -117.74026   -155.54725   -25.309224   -172.36431    41.058028    41.058028    82.116055 
   46500    757.46954   -25551.309   -26334.496   -164.79214   -416.83535    191.41708   -268.95815    41.058953    41.058953    82.117905 
   46600    749.90622    -25551.33   -26326.697    40.690695   -348.01076    341.87016    128.21268    41.059636    41.059636    82.119272 
   46700    750.01581   -25551.347   -26326.827   -127.68256   -92.951017   -11.480423   -278.61624    41.060318    41.060318    82.120636 
   46800    749.03145   -25551.361   -26325.824    34.941724    17.613332   -62.299468    149.51131    41.060471    41.060471    82.120942 
   46900    753.56312   -25551.408   -26330.556   -143.89053   -118.11359   -762.52317    448.96516    41.060059    41.060059    82.120117 
   47000    746.81099   -25551.415   -26323.582    97.680472    34.001731   -363.96278    623.00246    41.059541    41.059541    82.119083 
   47100    742.32209   -25551.423   -26318.948    171.40462    158.27518   -51.616018     407.5547    41.059032    41.059032    82.118064 
   47200    747.71546   -25551.407   -26324.509     29.78887   -130.92302   -214.82183    435.11146    41.058532    41.058532    82.117065 
   47300    746.51779   -25551.382   -26323.246    129.67899    242.67161    23.535808    122.82957    41.058172    41.058172    82.116345 
   47400    754.18139   -25551.388   -26331.175   -12.602041    202.63828   -165.52554   -74.918854    41.058016    41.058016    82.116033 
   47500    759.12425    -25551.41   -26336.308   -194.55658   -556.34422   -25.818483   -1.5070405    41.058183    41.058183    82.116365 
   47600     754.6879   -25551.454   -26331.765   -28.663601    136.24799   -286.14086    63.902065    41.058402    41.058402    82.116804 
   47700    749.97974   -25551.489   -26326.932     6.538191     264.5831   -109.98567   -134.98286     41.05898     41.05898     82.11796 
   47800    743.22157   -25551.525   -26319.981    125.62728    206.03739    195.10944   -24.264967    41.059567    41.059567    82.119135 
   47900     756.5446   -25551.519   -26333.749   -274.71334   -552.40596   -246.15407   -25.580011    41.060267    41.060267    82.120533 
   48000    740.34729   -25551.506    -26316.99    107.84189    526.51126   -402.36489    199.37929    41.060377    41.060377    82.120754 
   48100      753.723   -25551.467   -26330.781   -205.76173   -88.231009   -618.73392    89.679745    41.060081    41.060081    82.120162 
   48200    746.04861   -25551.435   -26322.813    43.375259    141.43653   -193.98546    182.67471    41.059121    41.059121    82.118241 
   48300    749.39647   -25551.395   -26326.235   -5.8416907    358.43261   -146.91987   -229.03781    41.058135    41.058135    82.116271 
   48400    746.08369   -25551.351   -26322.766    154.92045   -35.651232     469.0285     31.38409    41.057518    41.057518    82.115035 
   48500    755.82456   -25551.331   -26332.817   -62.948564    196.15008   -249.63306   -135.36272    41.057095    41.057095    82.114191 
   48600    741.53126   -25551.327   -26318.034    265.28057    52.961232    364.27621    378.60426    41.057176    41.057176    82.114352 
   48700    752.67087   -25551.298   -26329.523   -11.169377   -8.5230643    197.96605   -222.95111    41.058239    41.058239    82.116478 
   48800    746.90516   -25551.321   -26323.585    5.4391582    175.39438   -121.46097   -37.615937    41.059227    41.059227    82.118454 
   48900    752.70229   -25551.288   -26329.546   -158.49125   -233.47643    278.26161   -520.25891    41.060326    41.060326    82.120651 
   49000    748.89691   -25551.227   -26325.551   -30.978969   -60.319093   -225.12045    192.50264    41.061136    41.061136    82.122272 
   49100    753.23385   -25551.135   -26329.943   -163.68719   -338.00388    630.52697   -783.58466    41.061619    41.061619    82.123238 
   49200    751.11162   -25551.087   -26327.701   -97.192521   -329.22222    469.91267   -432.26802    41.060983    41.060983    82.121965 
   49300    740.17185   -25551.055   -26316.357    121.92709    404.00711    33.825902   -72.051734    41.059522    41.059522    82.119044 
   49400    750.21008    -25550.99   -26326.671    36.336447    -136.3812    70.147687    175.24286    41.057959    41.057959    82.115917 
   49500    747.35435   -25550.934   -26323.662    119.68967    41.010841    284.45548    33.602697    41.056811    41.056811    82.113621 
   49600    744.15546   -25550.891   -26320.312    275.76929    229.26416    316.17481    281.86891     41.05642     41.05642    82.112841 
   49700    747.01217   -25550.851   -26323.226    127.28054   -100.46481    283.52688    198.77956    41.057015    41.057015     82.11403 
   49800    753.25892   -25550.798   -26329.631   -34.661462   -56.098466    423.61823   -471.50415    41.058266    41.058266    82.116532 
   49900    761.22833   -25550.774   -26337.847   -302.38587   -114.48384   -217.32213   -575.35164    41.059427    41.059427    82.118855 
   50000    753.12454   -25550.754   -26329.448   -215.58551   -597.65983   -281.02623    231.92952     41.06035     41.06035    82.120699 
Loop time of 1499.27 on 1 procs for 50000 steps with 8000 atoms

Pair  time (%) = 1357.59 (90.5495)
Neigh time (%) = 100.358 (6.69377)
Comm  time (%) = 8.63934 (0.576235)
Outpt time (%) = 0.640328 (0.0427092)
Other time (%) = 32.0506 (2.13774)

Nlocal:    8000 ave 8000 max 8000 min
Histogram: 1 0 0 0 0 0 0 0 0 0
Nghost:    9129 ave 9129 max 9129 min
Histogram: 1 0 0 0 0 0 0 0 0 0
Neighs:    301671 ave 301671 max 301671 min
Histogram: 1 0 0 0 0 0 0 0 0 0

Total # of neighbors = 301671
Ave neighs/atom = 37.7089
Neighbor list builds = 5000
Dangerous builds = 0
unfix		1

# Melt half the system
region  liquid block INF INF INF INF INF ${nzhalf}
region  liquid block INF INF INF INF INF 10
group	liquid_group region liquid
4016 atoms in group liquid_group

# Heat up one side to Tmelt to make sure it is melted
fix 2 liquid_group npt temp ${Tmelt} ${Tmelt} 1 z 0 0 10 drag 1.0
fix 2 liquid_group npt temp 2000 ${Tmelt} 1 z 0 0 10 drag 1.0
fix 2 liquid_group npt temp 2000 2000 1 z 0 0 10 drag 1.0
run		${eqsteps}
run		50000
Memory usage per processor = 5.95825 Mbytes
Step Temp TotEng PotEng Press Pxx Pyy Pzz Lx Ly Lz 
   50000    753.12454   -25550.754   -26329.448   -215.58551   -597.65983   -281.02623    231.92952     41.06035     41.06035    82.120699 
   50100    752.55571   -25548.516   -26326.623   -156.45863   -411.99309   -194.88475    137.50194     41.06035     41.06035    82.120731 
   50200    748.47722   -25543.542   -26317.431    151.97624    50.202092     46.82473    358.90189     41.06035     41.06035    82.120829 
   50300    748.73973   -25538.885   -26313.046     326.4472   -49.602546    533.53332    495.41082     41.06035     41.06035    82.121065 
   50400    761.86418   -25534.062   -26321.793     119.7826    155.90935   -151.56176    355.00021     41.06035     41.06035    82.121537 
   50500     754.3733   -25528.691   -26308.677    494.62899     327.4147    474.22068    682.25159     41.06035     41.06035    82.122256 
   50600    762.93322   -25523.035   -26311.871    405.13327    575.07075    261.65602    378.67304     41.06035     41.06035    82.123287 
   50700    765.22344   -25517.291   -26308.496    530.00344    289.35216     496.3886    804.26955     41.06035     41.06035    82.124647 
   50800     765.8568   -25511.415   -26303.274    661.17439    378.20158    783.80121    821.52038     41.06035     41.06035    82.126325 
   50900    769.31712    -25505.43   -26300.867    795.69744    698.98972    729.17576    958.92684     41.06035     41.06035    82.128355 
   51000    774.33669   -25499.356   -26299.982    824.01617    421.86426    615.82026     1434.364     41.06035     41.06035    82.130777 
   51100     778.8878   -25493.248   -26298.581    901.17589    801.46853    860.19634    1041.8628     41.06035     41.06035    82.133771 
   51200    779.27285   -25487.054   -26292.785    1054.2761     768.2281    982.78577    1411.8145     41.06035     41.06035    82.137211 
   51300    784.61406    -25480.83   -26292.084    1091.6071    858.70854    1273.0639    1143.0489     41.06035     41.06035    82.141192 
   51400    790.58487    -25474.54   -26291.967    1095.2439    919.66057    1163.5779    1202.4932     41.06035     41.06035    82.145756 
   51500    787.78103   -25468.213    -26282.74    1281.7295    1224.4459     1009.243    1611.4997     41.06035     41.06035    82.150907 
   51600    792.91679   -25461.878   -26281.715    1343.8207    1328.1486    1053.7324     1649.581     41.06035     41.06035    82.156771 
   51700    790.39428   -25455.475   -26272.705    1574.3738     1376.544    1665.4858    1681.0918     41.06035     41.06035    82.163338 
   51800     803.1885   -25449.011   -26279.469    1432.4416    1361.2566     1290.443    1645.6252     41.06035     41.06035    82.170609 
   51900    791.63309   -25442.551   -26261.061     1792.653    1758.7693     1721.442    1897.7477     41.06035     41.06035    82.178633 
   52000    804.40948   -25436.026   -26267.747    1589.2536    1893.0982    1362.9516    1511.7109     41.06035     41.06035    82.187432 
   52100    788.48792   -25429.484   -26244.742    2161.6968    2151.6183    2294.6831    2038.7889     41.06035     41.06035    82.196895 
   52200    810.64693   -25422.887   -26261.057    1633.1031    1928.2662    1534.7985    1436.2446     41.06035     41.06035     82.20706 
   52300    804.91824   -25416.261   -26248.508    1915.9279     1777.936    2164.1931    1805.6547     41.06035     41.06035     82.21785 
   52400    816.84848   -25409.568    -26254.15    1810.0942    1640.0406      1623.26    2166.9821     41.06035     41.06035    82.229368 
   52500    818.61831   -25402.896   -26249.308    1856.6184    1917.8249    1624.4003      2027.63     41.06035     41.06035    82.241715 
   52600     826.0053   -25396.161   -26250.211    1805.1601    1621.2245    1846.3442    1947.9115     41.06035     41.06035    82.254825 
   52700     825.2783   -25389.406   -26242.704    1917.2959    2051.0657    1623.3865    2077.4355     41.06035     41.06035      82.2687 
   52800     827.4103   -25382.619   -26238.121    1971.6152    1983.7752    2103.4527    1827.6176     41.06035     41.06035     82.28336 
   52900    830.92352   -25375.735    -26234.87    1919.1196    1983.8574    1976.6589    1796.8426     41.06035     41.06035    82.298781 
   53000    831.06559   -25368.856   -26228.138    2015.6135    1862.3712    2156.9721    2027.4971     41.06035     41.06035    82.314953 
   53100     832.9282   -25361.943   -26223.151    2022.8944    2337.0156    1925.3406    1806.3269     41.06035     41.06035    82.331877 
   53200    850.18452   -25355.024   -26234.074     1627.452    1731.5065     1285.115    1865.7347     41.06035     41.06035    82.349448 
   53300    836.38386   -25348.065   -26212.845    2093.6568    2036.2168    2266.0453    1978.7082     41.06035     41.06035    82.367691 
   53400    836.36515   -25341.018   -26205.779    2128.8628     2215.274    2066.4762    2104.8383     41.06035     41.06035    82.386534 
   53500    847.84015    -25333.96   -26210.586    1944.8957    1592.4617    1964.2057    2278.0197     41.06035     41.06035    82.405905 
   53600    850.78789   -25326.922   -26206.595    1899.7864    2268.6216    1725.3748    1705.3628     41.06035     41.06035    82.425918 
   53700    859.85623   -25319.821   -26208.871    1851.1249    2057.6462    2045.9518    1449.7767     41.06035     41.06035    82.446436 
   53800    861.47657   -25312.641   -26203.366    1796.1437    1668.3148    1840.8845    1879.2318     41.06035     41.06035    82.467302 
   53900    862.44748   -25305.434   -26197.163    1851.1797    1914.9744    1905.4627    1733.1018     41.06035     41.06035    82.488569 
   54000    866.67397   -25298.224   -26194.323    1824.9433    1828.5452     1762.847    1883.4376     41.06035     41.06035    82.510201 
   54100    863.01634   -25290.964   -26183.281    1851.4138    1922.9751    1797.7366    1833.5295     41.06035     41.06035    82.532259 
   54200     869.9758    -25283.67   -26183.183    1707.0771     1596.214    1944.2621    1580.7552     41.06035     41.06035    82.554716 
   54300    873.80863   -25276.333   -26179.809    1723.0935    1708.4213    1652.2787    1808.5805     41.06035     41.06035    82.577465 
   54400     875.0806   -25268.964   -26173.755    1732.3123    1904.6062    1715.5959    1576.7346     41.06035     41.06035    82.600494 
   54500     877.5942   -25261.546   -26168.936    1684.6938    2270.2591    1439.8115    1344.0109     41.06035     41.06035    82.623684 
   54600    872.81304   -25254.158   -26156.605    1810.9734    1446.1589    1975.8796    2010.8817     41.06035     41.06035    82.647023 
   54700    877.84049   -25246.711   -26154.356     1692.966    2346.6983    1240.7365    1491.4631     41.06035     41.06035    82.670595 
[...]
  336300     755.9781   -25537.736   -26319.381   -209.11887   -46.059271   -343.31027   -237.98707    41.057214    41.057214    82.179755 
  336400    753.08179   -25537.738   -26316.388   -144.73173    257.43759   -518.73622   -172.89655    41.057255    41.057255    82.177807 
  336500    759.63298    -25537.74   -26323.164   -235.71664    -163.6205   -477.63545   -65.893973    41.057201    41.057201    82.176627 
  336600    747.73798   -25537.734   -26310.859   -88.439453    -40.56626    -2.434542   -222.31756     41.05701     41.05701    82.196126 
  336700    750.04325   -25537.739   -26313.248   -109.02827    86.399491   -543.11506    129.63075    41.056698    41.056698    82.188837 
  336800    759.86593    -25537.74   -26323.405   -307.34117   -274.12487   -191.86962   -456.02904    41.056251    41.056251    82.191237 
  336900    749.42768   -25537.738    -26312.61     29.32265  -0.37529916     14.60525    73.738001    41.055689    41.055689    82.181414 
  337000    752.50442   -25537.736    -26315.79   -1.3158945    24.755674   -256.61889    227.91553    41.055112    41.055112    82.176437 
  337100    755.30843   -25537.737    -26318.69   -150.07653    265.52539     -603.145   -112.60998     41.05453     41.05453    82.191325 
  337200    750.12791   -25537.745   -26313.341   -202.01176    -168.3121    -385.2967    -52.42649    41.053843    41.053843    82.217807 
  337300    748.03754   -25537.748   -26311.183   -278.54873     -69.7677   -431.85647   -334.02202    41.052983    41.052983    82.224148 
  337400    748.67455   -25537.751   -26311.844    178.13814    316.37136   -222.88029    440.92335    41.052053    41.052053    82.180522 
  337500    753.09669   -25537.748   -26316.414    221.71338    152.04715     48.95328    464.13972    41.051195    41.051195    82.166799 
  337600     743.3186   -25537.746   -26306.302    317.05533    434.48974    527.49297   -10.816707    41.050473    41.050473    82.189282 
  337700    762.18687    -25537.75   -26325.814    -290.1478     154.3842   -318.07104   -706.75657    41.049952    41.049952    82.205258 
  337800    755.26264    -25537.75   -26318.655     9.820016    47.890178    -68.28225     49.85212    41.049506    41.049506    82.188192 
  337900    757.30795   -25537.748   -26320.768    143.65527    206.03199    192.64013    32.293685    41.049208    41.049208    82.167117 
  338000    753.68246   -25537.749    -26317.02    290.43788    455.85286    280.64694    134.81385    41.049086    41.049086    82.166561 
  338100    748.90365   -25537.748   -26312.078     146.1705     370.8236   -119.18382    186.87172    41.049115    41.049115    82.195457 
  338200    752.39465   -25537.748   -26315.688   -212.15994    125.14017   -98.165443   -663.45454    41.049148    41.049148    82.226563 
  338300    753.08784   -25537.752   -26316.408    70.929103   -23.610327   -97.120482    333.51812    41.049147    41.049147    82.201166 
  338400    755.45155   -25537.757   -26318.858    240.98216    697.50018    201.35691    -175.9106    41.049169    41.049169     82.16758 
  338500    758.44902   -25537.758   -26321.958    441.45723    868.76533    604.15265   -148.54628    41.049456    41.049456    82.129149 
  338600    749.77148   -25537.761   -26312.988    731.32044    1297.7955    327.55169    568.61416    41.050141    41.050141     82.11755 
  338700     758.7403   -25537.801   -26322.302   -146.52303   -40.568048   -462.91775    63.916713    41.051123    41.051123    82.188722 
  338800    753.14857    -25537.77    -26316.49   -499.99278   -647.52317   -238.14252   -614.31264    41.051916    41.051916    82.251083 
  338900    751.95812   -25537.779   -26315.268   -270.15201   -185.66539    -187.5335   -437.25714    41.052339    41.052339    82.228312 
  339000    746.38328   -25537.801   -26309.526    449.38278    655.86061    503.39141    188.89633    41.052558    41.052558    82.146732 
  339100    756.53276   -25537.783   -26320.001    569.43435    1044.9141    153.25718    510.13175    41.052965    41.052965    82.098526 
  339200    762.14592   -25537.796   -26325.819    241.29556    528.37977     175.6937    19.813207    41.053635    41.053635    82.128023 
  339300    754.83021   -25537.809   -26318.267   -77.560239    218.75103   -133.42103   -318.01071    41.054476    41.054476    82.190825 
  339400    758.88527   -25537.793   -26322.444   -472.80119   -537.03998   -449.00132   -432.36227    41.055177    41.055177    82.218391 
  339500    755.64386     -25537.8     -26319.1    -190.1496   -207.32722   -52.442544   -310.67904    41.055616    41.055616    82.185424 
  339600    756.49589   -25537.797   -26319.977    187.93968    297.06918   -19.872678    286.62252    41.055954    41.055954    82.142193 
  339700    751.24132   -25537.792    -26314.54    396.88306    770.52504      30.9589    389.16524    41.056379    41.056379     82.12615 
  339800     751.2705   -25537.795   -26314.572    315.55429    733.27355    286.12194   -72.732621    41.056989    41.056989    82.139692 
  339900    754.24541     -25537.8   -26317.653    24.071455    400.30616   -18.023106   -310.06869    41.057688    41.057688    82.157222 
  340000    752.97858   -25537.796    -26316.34    46.999745   -117.42041   -12.107383    270.52702    41.058329    41.058329    82.161034 
  340100    756.09336     -25537.8   -26319.564   -135.09525    68.833416   -335.89877   -138.22039    41.058837    41.058837    82.160962 
  340200     753.8379   -25537.801   -26317.234   -194.83272    318.80238   -870.84341   -32.457119    41.059182    41.059182    82.178976 
  340300    760.30485   -25537.802    -26323.92   -508.68997   -104.55558   -724.80162   -696.71271    41.059322    41.059322    82.192254 
  340400    754.17381   -25537.814   -26317.593    79.893201    432.12805   -2.5459275   -189.90252    41.059284    41.059284    82.147551 
  340500    751.51414   -25537.804   -26314.834    400.98002    1151.4832    39.994488    11.462346    41.059327    41.059327    82.107287 
  340600    757.60632   -25537.805   -26321.134    308.85037    101.55472     742.4643    82.532096    41.059628    41.059628    82.104237 
  340700    750.37654   -25537.811   -26313.665    219.87385    245.78259    58.718016    355.12096    41.060105    41.060105    82.136536 
  340800    750.89003   -25537.813   -26314.197   -203.90396    111.75636   -475.71106   -247.75717    41.060563    41.060563    82.191807 
  340900    753.45073   -25537.809   -26316.841   -488.59352   -582.90846    -331.8862   -550.98589    41.060741    41.060741    82.210051 
  341000    755.01969    -25537.83   -26318.484   -95.206886   -293.23759    22.413422   -14.796493    41.060623    41.060623    82.158475 
  341100    748.54637   -25537.814   -26311.775    393.86961    330.21949    330.15397    521.23538    41.060465    41.060465    82.113652 
  341200     757.4439   -25537.818   -26320.979    126.92821   -43.658901     398.2553    26.188222    41.060454    41.060454    82.128537 
  341300     766.7723   -25537.828   -26330.633   -395.23473   -231.92308   -849.87728   -103.90383    41.060532    41.060532    82.167237 
  341400    742.30608   -25537.819   -26305.328     -93.4725   -318.24839   -143.21345    181.04434    41.060419    41.060419    82.205146 
  341500    753.83188    -25537.83   -26317.256   -346.78027   -391.70458   -64.411548   -584.22469    41.060099    41.060099    82.201236 
  341600    758.47721   -25537.846   -26322.075    79.173234    97.561317     69.06334    70.895045    41.059685    41.059685    82.133643 
  341700    752.90895   -25537.829   -26316.301    622.83137    676.17819    756.63211    435.68381    41.059421    41.059421    82.092515 
  341800    751.54983    -25537.84   -26314.906    381.86083    103.51387      566.741    475.32763    41.059564    41.059564    82.115364 
  341900    750.56586   -25537.847   -26313.896   -59.543824   -147.19337    52.219105   -83.657204    41.059907    41.059907    82.172949 
  342000    750.01228   -25537.835   -26313.311   -186.68314   -340.29407    147.71121   -367.46656    41.060177    41.060177    82.193956 
  342100    756.85352   -25537.842   -26320.392   -130.74409    57.930499   -111.82576   -338.33701    41.060235    41.060235    82.160302 
  342200    762.32742   -25537.841    -26326.05   -41.551555    307.28597   -237.68033   -194.26031    41.060275    41.060275    82.127921 
  342300    753.42511   -25537.836   -26316.841    396.76292    279.02786    107.21411    804.04679    41.060433    41.060433    82.117754 
  342400    763.79291   -25537.847   -26327.572   -292.65086   -353.41296   -179.55111   -344.98849    41.060689    41.060689    82.163061 
  342500    754.44597   -25537.846   -26317.907   -331.07721   -329.29664    -358.1053   -305.82968    41.060842    41.060842    82.198001 
  342600    756.62005   -25537.855   -26320.164   -390.44944   -284.68421   -434.80603   -451.85808    41.060773    41.060773    82.181253 
  342700      751.701   -25537.857    -26315.08    294.07313     959.3979   -6.6829094   -70.495603    41.060605    41.060605    82.123268 
  342800    752.18773   -25537.847   -26315.573    668.13442    939.78003    735.05434    329.56889     41.06067     41.06067    82.081645 
  342900     759.5136   -25537.862   -26323.162     342.5524    360.50723    360.74087    306.40911    41.061098    41.061098    82.096468 
  343000    751.59414   -25537.862   -26314.974    74.382222    168.46413    40.217161    14.465376    41.061699    41.061699    82.143273 
  343100    752.87685   -25537.855   -26316.293   -78.613524    174.96351   -114.72368   -296.08041    41.062312    41.062312    82.165368 
  343200    758.32014   -25537.867   -26321.934    13.775537    166.06081    -292.7034    167.96921     41.06288     41.06288    82.130997 
  343300    756.25615   -25537.857   -26319.789    283.05891    366.21565    155.93728    327.02379    41.063422    41.063422    82.107465 
  343400    756.24154    -25537.86   -26319.777    53.769035    228.19024    3.2607033   -70.143833    41.064048    41.064048    82.118065 
  343500    751.99671   -25537.857   -26315.386    159.71899    510.39025    219.83353   -251.06683    41.064685    41.064685    82.129325 
  343600    752.33663    -25537.86    -26315.74    104.76129   -1.2617271    267.54949    47.996112    41.065325    41.065325    82.123032 
  343700    756.55997   -25537.859   -26320.105    48.964837   -24.417652   -153.51446    324.82663    41.065954    41.065954    82.114733 
  343800    753.37547   -25537.859   -26316.813   -130.08324   -126.10103   -103.61671   -160.53198    41.066496    41.066496    82.129958 
  343900    757.07032   -25537.863   -26320.637   -272.15845   -364.86357   -530.44629    78.834522    41.066896    41.066896    82.146445 
  344000     751.9574   -25537.861   -26315.348    -337.4427   -248.93027   -696.39989   -66.997933    41.067025    41.067025     82.16459 
  344100    766.39441   -25537.867   -26330.282   -591.98318   -194.05391   -998.05439   -583.84124    41.066882    41.066882    82.161236 
  344200    752.50524   -25537.859   -26315.913   -49.813679    364.55034   -486.03844   -27.952938    41.066569    41.066569    82.132758 
  344300    750.81161    -25537.86   -26314.163    157.05442    41.243299    114.11125    315.80871    41.066243    41.066243    82.111472 
  344400    749.09832   -25537.859   -26312.391    249.86491    517.44719    28.648725    203.49881    41.066033    41.066033    82.119264 
  344500     756.2207   -25537.867   -26319.763   -136.58537    -83.27457     105.2865   -431.76804    41.065909    41.065909    82.127205 
  344600    755.30814   -25537.863   -26318.815    111.67024    262.94653    168.89657   -96.832382    41.065876    41.065876    82.113805 
  344700      742.909   -25537.858    -26305.99    555.39113    666.37842    853.11169    146.68329    41.065931    41.065931    82.094356 
  344800    757.91256   -25537.867   -26321.512    302.74314    52.283136    224.98926    630.95703    41.066294    41.066294    82.083733 
  344900    749.35913   -25537.868   -26312.669    172.90084    379.14766    406.45801   -266.90316    41.066811    41.066811    82.112277 
  345000    759.92676   -25537.869   -26323.597   -143.80762   -470.45286    183.64248   -144.61248    41.067396    41.067396    82.126098 
  345100    758.45363   -25537.866   -26322.071   -149.18472   -174.47525    -372.5712    99.492305    41.067903    41.067903    82.127975 
  345200     760.7979   -25537.869   -26324.497   -188.06954   -367.51358   -193.58251    -3.112525    41.068302    41.068302    82.132757 
  345300    754.27889   -25537.867   -26317.755   -62.384484   -193.18047   -169.32463    175.35164    41.068608    41.068608    82.126292 
  345400    752.71724   -25537.865   -26316.138   -108.12591    359.65278   -42.281636   -641.74888    41.068848    41.068848    82.129991 
  345500    758.83827   -25537.871   -26322.474    57.553481   -44.010151     204.0577    12.612895    41.069092    41.069092    82.102802 
  345600    752.92964   -25537.866   -26316.359    331.28993    446.57449    293.34699    253.94832     41.06938     41.06938    82.076697 
  345700    757.06348   -25537.869   -26320.636    236.22427     611.4412    129.57006   -32.338439    41.069843    41.069843     82.06986 
  345800    752.13525   -25537.869   -26315.541    315.61221    459.62309    233.74892    253.46463    41.070494    41.070494    82.064825 
  345900     752.1569   -25537.876    -26315.57    186.93999    86.035856    360.17397    114.61015    41.071265    41.071265    82.085555 
  346000    753.39295   -25537.875   -26316.847   -63.329415   -243.56372    19.201567    34.373908    41.071986    41.071986    82.117742 
  346100     755.8845   -25537.874   -26319.423   -447.85835    -635.9038   -412.34476   -295.32648    41.072438    41.072438    82.143605 
  346200    760.26519   -25537.875   -26323.953   -481.47276   -594.58512   -694.40431   -155.42885    41.072536    41.072536    82.138794 
  346300    752.64318   -25537.878   -26316.074   -177.77583   -139.15782   -439.48989    45.320204    41.072307    41.072307    82.120565 
  346400    750.59296   -25537.872   -26313.949    7.9773672    107.78584   -87.284957    3.4312151    41.071885    41.071885    82.102221 
  346500    754.41428   -25537.872     -26317.9    96.270146     99.16095   -161.55821    351.20769    41.071474    41.071474    82.091331 
  346600     750.8326   -25537.874   -26314.199    137.44841    403.32265     221.7083   -212.68572      41.0711      41.0711    82.095454 
  346700    748.65642   -25537.876   -26311.951    159.54343    399.97507    -7.468976    86.124178    41.070841    41.070841    82.107948 
  346800    758.99095    -25537.88    -26322.64   -247.48071   -58.808903   -613.17643   -70.456803    41.070568    41.070568    82.126334 
  346900    764.96956   -25537.879   -26328.821   -476.14173   -415.88872   -489.59339   -522.94308    41.070174    41.070174    82.131281 
  347000    752.35815   -25537.876   -26315.778    66.314248   -506.32157    445.68688    259.57744      41.0697      41.0697    82.110702 
  347100    759.13045   -25537.879   -26322.783   -122.49119   -424.65089   -255.86618    313.04349    41.069217    41.069217    82.106322 
  347200    749.14253   -25537.872    -26312.45     136.6719    373.09621    273.23273   -236.31325    41.068702    41.068702    82.114474 
  347300    745.35086   -25537.873   -26308.529    351.45636    369.16301    340.12883    345.07723    41.068285    41.068285    82.101105 
  347400    759.66397    -25537.88   -26323.336   -81.489757    188.65017   -350.61098   -82.508463    41.067968    41.067968    82.109255 
  347500    760.88254    -25537.88   -26324.596   -159.11854   -9.8943093   -288.10709   -179.35422    41.067692    41.067692    82.117168 
  347600    757.58468    -25537.88   -26321.186   -114.49834   -353.85014   -52.563098    62.918219    41.067437    41.067437     82.11749 
  347700    754.22817   -25537.874    -26317.71     4.152387    73.017174    117.51143   -178.07145    41.067206    41.067206       82.124 
  347800    751.66354   -25537.875   -26315.059     125.7329   -104.15027    42.447132    438.90185    41.067026    41.067026    82.114805 
  347900    752.70735   -25537.876    -26316.14    5.6546294    298.77205   -313.67211     31.86395    41.066844    41.066844    82.121501 
  348000    754.89365   -25537.877     -26318.4    -33.41623     233.3454   -510.21052    176.61642     41.06667     41.06667    82.124504 
  348100    754.49394   -25537.878   -26317.988   -90.397987    -32.55154   -17.428348   -221.21407    41.066475    41.066475    82.127145 
  348200     755.7537   -25537.875   -26319.288    121.20159   -129.92798    303.41339    190.11934    41.066354    41.066354     82.11203 
  348300    754.67575    -25537.88   -26318.178     206.7782    191.63196     101.3138    327.38883    41.066263    41.066263    82.099711 
  348400    755.30394   -25537.881   -26318.829    81.589473   -202.45422    215.00386    232.21878    41.066281    41.066281    82.110265 
  348500    763.11316    -25537.88   -26326.903    -307.1065   -257.69943   -409.29463   -254.32543    41.066334    41.066334    82.133996 
  348600    761.42141   -25537.883   -26325.156   -271.14963   -125.66182   -582.69596   -105.09111    41.066303    41.066303    82.141149 
  348700    747.00135   -25537.879   -26310.242     99.93936   -57.185266    144.74346    212.25988    41.066115    41.066115    82.145732 
  348800    762.62246   -25537.885     -26326.4   -407.93616   -573.54463   -590.28066   -59.983175    41.065853    41.065853    82.151582 
  348900    758.26822   -25537.881   -26321.894   -318.67786   -383.08599   -605.30542    32.357827    41.065456    41.065456    82.162072 
  349000     746.9312   -25537.877   -26310.168   -2.4498903    123.83871   -87.506673    -43.68171    41.064927    41.064927    82.155336 
  349100    752.76337   -25537.879     -26316.2    53.689214   -465.55784    357.90759    268.71789    41.064337    41.064337      82.1342 
  349200    758.01145   -25537.884   -26321.631   -203.12561    -73.69211    -35.01968   -500.66503    41.063665    41.063665    82.142341 
  349300      752.596   -25537.882    -26316.03    132.60422    62.759738   -247.55901    582.61193    41.063048    41.063048     82.13264 
  349400    753.00163   -25537.886   -26316.453   -101.69945   -431.39807   -9.9546129    136.25435    41.062427    41.062427    82.153413 
  349500     754.1193   -25537.885   -26317.608   -229.10555   -220.91711    69.743702   -536.14325    41.061723    41.061723    82.174751 
  349600    757.23802   -25537.889   -26320.837   -201.37359   -525.41675    -200.9773    122.27329    41.060992    41.060992    82.151572 
  349700    754.22657   -25537.889   -26317.723    238.10359    310.81048   -260.43462    663.93492     41.06022     41.06022     82.11935 
  349800    755.39217   -25537.889   -26318.928    236.30359    187.29454    156.58684     365.0294    41.059639    41.059639    82.116132 
  349900    757.40119   -25537.902   -26321.018   -146.70767   -498.60596   -6.8437916    65.326738    41.059236    41.059236    82.152163 
  350000    751.49648   -25537.889     -26314.9    -296.3349   -242.40413   -25.379953   -621.22062    41.058804    41.058804    82.194079 
Loop time of 5922.1 on 1 procs for 200000 steps with 8000 atoms

Pair  time (%) = 5370.47 (90.6852)
Neigh time (%) = 396.189 (6.69)
Comm  time (%) = 31.8774 (0.538279)
Outpt time (%) = 2.49383 (0.0421105)
Other time (%) = 121.071 (2.04439)

Nlocal:    8000 ave 8000 max 8000 min
Histogram: 1 0 0 0 0 0 0 0 0 0
Nghost:    8282 ave 8282 max 8282 min
Histogram: 1 0 0 0 0 0 0 0 0 0
Neighs:    301577 ave 301577 max 301577 min
Histogram: 1 0 0 0 0 0 0 0 0 0

Total # of neighbors = 301577
Ave neighs/atom = 37.6971
Neighbor list builds = 20000
Dangerous builds = 0
unfix		4
