LAMMPS (13 Jan 2014)
dimension       3
boundary        p p p
units           metal

atom_style	atomic
neighbor	0.3 bin
neigh_modify	every 10 delay 0 check no

# Number of steps for the equilibration steps
variable        eqsteps equal 50000

# Number of steps to run our NPH simulation
variable        simsteps equal 200000

# Our trial melting temperature
variable	T equal 825.0
variable	T2 equal 2*${T}
variable	T2 equal 2*825

# Some high temperature to melt the crystal
variable	Tmelt equal 2000.0

#System size
variable	nx equal 10
variable	ny equal 10
variable	nz equal 20
variable	nzhalf equal ${nz}*0.5
variable	nzhalf equal 20*0.5
variable	a equal 4.050
variable	length equal ${nz}*${a}
variable	length equal 20*${a}
variable	length equal 20*4.05

lattice		fcc ${a}
lattice		fcc 4.05
Lattice spacing in x,y,z = 4.05 4.05 4.05

region         box block 0 ${nx} 0 ${ny} 0 ${nz}
region         box block 0 10 0 ${ny} 0 ${nz}
region         box block 0 10 0 10 0 ${nz}
region         box block 0 10 0 10 0 20
create_box     1 box
Created orthogonal box = (0 0 0) to (40.5 40.5 81)
  1 by 1 by 1 MPI processor grid
create_atoms   1 box
Created 8000 atoms

mass		1 26.9815

pair_style	eam/alloy
pair_coeff	* * Al_potential.alloy Al

velocity	all create ${T2} 1337
velocity	all create 1650 1337

# Create a dump file. This can be visualized with
# e.g. OVITO (http://www.ovito.org/)
dump		id all atom 1000 atomsdump

# 1 fs timestep
timestep	0.001
thermo_style	custom step temp etotal pe press pxx pyy pzz lx ly lz

# output every 100th timestep
thermo		100

# Equilibration the whole system to the trial melting temperature
fix		1 all npt temp ${T} ${T} 1 iso 0 0 3 drag 1.0
fix		1 all npt temp 825 ${T} 1 iso 0 0 3 drag 1.0
fix		1 all npt temp 825 825 1 iso 0 0 3 drag 1.0
run		${eqsteps}
run		50000
Memory usage per processor = 5.95314 Mbytes
Step Temp TotEng PotEng Press Pxx Pyy Pzz Lx Ly Lz 
       0         1650   -25471.231   -27177.252    9651.6565    9527.0161    9514.1229    9913.8307         40.5         40.5           81 
     100    799.25436   -25487.796   -26314.187    25116.543    25385.863    25112.113    24851.653    40.587837    40.587837    81.175673 
     200    773.10952   -25511.109   -26310.467    14177.552    14700.184    14134.794    13697.678    40.793574    40.793574    81.587148 
     300    781.30835   -25519.966   -26327.802    5172.7017    5113.7898    5045.0271    5359.2883    40.958741    40.958741    81.917481 
     400    769.49979   -25519.997   -26315.622    256.51401   -112.35555     795.7168    86.180779    41.063318    41.063318    82.126637 
     500    757.66506   -25517.064   -26300.453   -2576.5081   -2471.3072   -2361.1067   -2897.1103    41.128015    41.128015     82.25603 
     600    758.36255   -25513.443   -26297.553   -3928.3821   -3780.2695   -4022.7357    -3982.141    41.157928    41.157928    82.315856 
     700    752.96752   -25510.209   -26288.741   -3673.1678   -3554.1246   -3819.0936   -3646.2853    41.157079    41.157079    82.314158 
     800    770.29786   -25507.396   -26303.847   -2804.8931   -2665.1863   -3126.9903   -2622.5028    41.133857    41.133857    82.267715 
     900    766.65405   -25504.749   -26297.432   -937.15713   -932.73278   -1016.5193   -862.21926    41.099095    41.099095     82.19819 
    1000    778.27979   -25501.966    -26306.67    480.29315    596.48412    534.46687    309.92846    41.065659    41.065659    82.131318 
    1100     786.0055    -25499.12   -26311.812    1541.4872    1421.2526    1635.7831    1567.4259    41.043189    41.043189    82.086378 
    1200    782.95049   -25496.501   -26306.034    1998.6784    1993.8116    2457.0127    1545.2109    41.035919    41.035919    82.071838 
    1300      767.518    -25494.18   -26287.757    2130.5641    2091.5311    2169.4287    2130.7326    41.042817    41.042817    82.085634 
    1400    781.82082   -25491.934   -26300.299    1026.8778     1364.162    767.21104    949.26027    41.060402    41.060402    82.120804 
    1500    781.27929   -25489.581   -26297.386   -74.682184   -5.2494424   -35.339604    -183.4575    41.081982    41.081982    82.163964 
    1600    775.25667   -25487.016   -26288.594   -631.37654   -818.07333   -500.24867   -575.80761    41.100996    41.100996    82.201991 
    1700    775.81199   -25484.394   -26286.547   -1159.7235   -1113.8149   -1100.4536   -1264.9019    41.112635    41.112635     82.22527 
    1800    775.02485     -25481.8   -26283.139   -1231.5701    -1478.629   -847.98693   -1368.0942    41.114958    41.114958    82.229917 
    1900     779.1973    -25479.27   -26284.923   -968.51096   -936.42079   -1004.7883   -964.32378    41.109004    41.109004    82.218007 
    2000    780.79827   -25476.759   -26284.067   -338.87381   -337.48695   -247.97819   -431.15629     41.09806     41.09806    82.196119 
    2100    791.85182   -25474.259   -26292.996    13.221149    278.19728    128.53658   -367.07042    41.086491    41.086491    82.172982 
    2200    781.66832   -25471.821   -26280.029    814.00979    979.80403    1076.3717    385.85361    41.077669    41.077669    82.155338 
    2300    784.16071   -25469.477   -26280.262    925.63615    953.05163    804.22065    1019.6362    41.074381    41.074381    82.148761 
    2400    792.78629   -25467.212   -26286.915    665.03799    869.46153    519.76107    605.89137    41.077172    41.077172    82.154345 
    2500    783.91743   -25465.042   -26275.575    564.62148    451.57728    583.06007    659.22707    41.084473    41.084473    82.168945 
    2600    786.15686   -25462.849   -26275.698    111.15556    211.80074    3.0022789    118.66365    41.094349    41.094349    82.188699 
    2700    785.47319   -25460.638   -26272.779   -215.34737   -452.77054   -38.319326   -154.95225    41.103754    41.103754    82.207508 
    2800     791.6048   -25458.414   -26276.895   -672.92083   -854.50886   -402.83543   -761.41819    41.110176    41.110176    82.220351 
    2900    791.39884   -25456.217   -26274.485   -727.54848   -605.54708   -853.87334   -723.22501    41.111961    41.111961    82.223923 
    3000    786.67946   -25454.046   -26267.435   -407.42427   -558.18756   -706.76057    42.675309    41.109352    41.109352    82.218704 
    3100    789.45078   -25451.913   -26268.167    -147.1193   -103.27509    76.288626   -414.37142    41.103973    41.103973    82.207946 
    3200    792.60553   -25449.824    -26269.34    158.89994   -133.62566    177.89774    432.42775    41.097738    41.097738    82.195476 
    3300    789.27424    -25447.78   -26263.851    492.60949    441.14391     249.6029    787.08167    41.092837    41.092837    82.185673 
    3400    789.86058   -25445.772    -26262.45    763.56705    633.30829    829.84147     827.5514    41.091204    41.091204    82.182407 
    3500    799.73953    -25443.85   -26270.742    424.42109    386.72419    266.21177    620.32731      41.0935      41.0935    82.187001 
    3600     795.0199    -25441.99   -26264.003    315.95089    482.40743    387.47495     77.97028    41.098828    41.098828    82.197656 
    3700    797.30772    -25440.14   -26264.517    19.700085    163.52439    197.49446    -301.9186    41.105876    41.105876    82.211751 
    3800    803.84155   -25438.293   -26269.427   -432.24145   -33.482654   -351.26199   -911.97972    41.112379    41.112379    82.224758 
    3900    793.79101   -25436.462   -26257.204   -367.76151   -179.67884   -411.08072   -512.52497    41.116401    41.116401    82.232803 
    4000    797.84914   -25434.668   -26259.605   -394.73577   -581.88766   -275.98528   -326.33437    41.116998    41.116998    82.233996 
    4100    798.38391   -25432.883   -26258.374    -202.0126    -516.0607   -284.16301    194.18592    41.114849    41.114849    82.229698 
    4200    802.69352   -25431.138   -26261.084   -147.29156   -56.428824   -157.41928   -228.02659    41.110942    41.110942    82.221884 
    4300    794.40884   -25429.396   -26250.776    327.34067    238.63351    87.650412    655.73808    41.106835    41.106835     82.21367 
    4400    802.71269   -25427.727   -26257.693    375.50731    320.45248     361.1807    444.88876    41.103694    41.103694    82.207387 
    4500    807.72275   -25426.084    -26261.23    309.44935    333.01022    331.44064    263.89718    41.103232    41.103232    82.206465 
    4600    807.05963   -25424.478   -26258.939    306.89234   -75.330659    407.41788     588.5898    41.105478    41.105478    82.210956 
    4700    795.23039   -25422.923   -26245.153    409.40146   -17.082652    322.19862    923.08843    41.109535    41.109535     82.21907 
    4800     811.3567   -25421.374   -26260.278   -125.86593   -321.58953    88.783398   -144.79164    41.114602    41.114602    82.229203 
    4900    805.23038   -25419.852   -26252.422    -207.1276   -480.99578    227.19082   -367.57783    41.119011    41.119011    82.238023 
    5000    810.32165   -25418.351   -26256.184   -355.44703   -370.58803   -588.91779   -106.83527    41.121654    41.121654    82.243308 
    5100    808.51978   -25416.903   -26252.874   -447.87726   -547.39293   -142.04706   -654.19179    41.121737    41.121737    82.243474 
    5200    792.34761   -25415.469   -26234.719    165.82504    420.98504    286.78679    -210.2967    41.119714    41.119714    82.239428 
    5300    808.72564    -25413.99   -26250.174   -38.221671   -298.86433    9.1455352    175.05378    41.117022    41.117022    82.234044 
    5400    808.94458   -25412.597   -26249.007     220.1058   -172.16853    324.94163     507.5443    41.113977    41.113977    82.227954 
    5500    807.87882   -25411.264   -26246.572    331.03754     700.3949   -47.169918    339.88765    41.112041    41.112041    82.224082 
    5600    804.59109   -25409.963   -26241.872    453.42473    593.56695    401.16994    365.53731    41.112258    41.112258    82.224515 
    5700    816.56284   -25408.649   -26252.936    113.19353    431.04933    110.45927   -201.92801    41.114925    41.114925     82.22985 
    5800    817.02683   -25407.373    -26252.14     4.681655    252.33803     151.3488   -389.64186     41.11889     41.11889    82.237781 
    5900    798.87584    -25406.11   -26232.109    219.79017    1011.7584   -347.99029   -4.3976547    41.123236    41.123236    82.246472 
    6000    815.26402    -25404.89   -26247.834   -310.30951   -89.858134   -76.130831   -764.93957    41.126713    41.126713    82.253425 
    6100    816.84003   -25403.706   -26248.279   -393.21086      -337.74    9.2747348    -851.1673    41.128601    41.128601    82.257203 
    6200    819.66799   -25402.569   -26250.067   -426.46625     -459.776   -375.19488   -444.42788    41.128439    41.128439    82.256879 
    6300    810.20663    -25401.47   -26239.184   -123.28072   -190.87371   -51.228489   -127.73998    41.126265    41.126265     82.25253 
    6400    815.64716   -25400.362   -26243.702   -87.743207   -467.98076    180.00863    24.742505    41.123088    41.123088    82.246176 
    6500    812.52472   -25399.282   -26239.394    172.55726   -11.038681   -177.41994    706.13041    41.119816    41.119816    82.239631 
    6600    813.02928   -25398.245   -26238.878    312.99406    389.37286    447.57427    102.03505    41.117485    41.117485     82.23497 
    6700    813.12911   -25397.212   -26237.948    384.83877    744.18014     214.0956    196.24056    41.117307    41.117307    82.234613 
    6800     814.6293   -25396.226   -26238.514    332.32177    331.04579    434.01339    231.90614    41.119358    41.119358    82.238716 
    6900    822.63863   -25395.264   -26245.833   -53.245121   -207.19992    32.650283    14.814271    41.123335    41.123335    82.246669 
    7000    814.35546   -25394.338   -26236.342   -50.745948    4.9153695   -27.370806   -129.78241    41.127641    41.127641    82.255282 
    7100    807.74455   -25393.435   -26228.604   -75.118918   -228.08025     320.4783    -317.7548    41.130986    41.130986    82.261972 
    7200    809.04619   -25392.545    -26229.06   -29.347229    108.44197    -63.30663   -133.17703     41.13254     41.13254    82.265081 
    7300    829.95481   -25391.635   -26249.769   -546.93057   -448.64188     -613.047   -579.10282    41.132217    41.132217    82.264435 
    7400     810.6763   -25390.792   -26228.992    45.092563   -238.27769   -99.021873    472.57726    41.129618    41.129618    82.259236 
    7500    817.49685   -25389.956   -26235.209    93.953785    421.58581   -9.9627623    -129.7617    41.126325    41.126325    82.252649 
    7600    825.47429   -25389.155   -26242.656     39.45202      213.814   -184.83808    89.380143    41.123489    41.123489    82.246978 
    7700    815.81498   -25388.385   -26231.898     336.6351   -211.48235    752.33572    469.05191    41.121955    41.121955    82.243909 
    7800    815.41363   -25387.631    -26230.73    386.62752    435.03826    433.58901    291.25531     41.12254     41.12254    82.245081 
    7900    823.05826   -25386.922   -26237.925    62.801871    51.808728    142.01298   -5.4160944    41.125133    41.125133    82.250265 
    8000    831.98947   -25386.243    -26246.48   -306.21241   -455.01977    83.310106   -546.92755    41.128796    41.128796    82.257591 
    8100    821.74108   -25385.589    -26235.23   -171.94338   -569.69213   -66.354164    120.21614    41.132271    41.132271    82.264542 
    8200    820.33471    -25384.94   -26233.127   -234.93799   -579.04347   -142.78373     17.01322    41.134756    41.134756    82.269512 
    8300    822.98106   -25384.293   -26235.216   -350.22289   -936.17214    5.7338883   -120.23041    41.135504    41.135504    82.271008 
    8400    826.87769   -25383.701   -26238.653   -431.99457   -840.66461   -404.17387   -51.145232    41.133934    41.133934    82.267869 
    8500    818.74839   -25383.158   -26229.705     71.46883     69.70416    93.189422    51.512908    41.130548    41.130548    82.261096 
    8600    828.01188   -25382.603   -26238.728    -21.95256   -41.787192   -517.69221    493.62172    41.127353    41.127353    82.254705 
    8700    812.41312   -25382.087   -26222.083    538.93315     226.6685    605.91517    784.21577    41.125048    41.125048    82.250096 
    8800    825.00436   -25381.604   -26234.619    208.35054    -132.4583    75.025204    682.48472    41.124661    41.124661    82.249323 
    8900    831.35269   -25381.139   -26240.718    118.01346   -76.918871   -97.854375    528.81361    41.126252    41.126252    82.252505 
    9000    830.69015   -25380.739   -26239.633   -86.150761   -244.91084   -189.01565    175.47421    41.129319    41.129319    82.258639 
    9100    819.15891   -25380.355   -26227.326    85.718068   -22.604762   -231.91454    511.67351    41.133053    41.133053    82.266107 
    9200    825.31875   -25380.012   -26233.352   -265.17422   -278.08652    140.42077   -657.85693    41.136401    41.136401    82.272801 
    9300    816.46415   -25379.667   -26223.851   -111.92703   -361.34966    47.948246   -22.379664    41.138471    41.138471    82.276943 
    9400    823.95152   -25379.295   -26231.221   -337.19925     -25.6195   -409.02089   -576.95735    41.138743    41.138743    82.277486 
    9500    827.47338    -25378.97   -26234.538   -296.03288   -413.14041   -443.29778   -31.660447    41.136656    41.136656    82.273313 
    9600    817.84917   -25378.681   -26224.298    81.592854    52.676108   -108.25852    300.36098    41.132944    41.132944    82.265888 
    9700    822.68027   -25378.366   -26228.978    102.20634    360.28685    150.62474   -204.29256    41.129332    41.129332    82.258664 
    9800    822.51971   -25378.091   -26228.537    324.07971    106.47875    490.99867    374.76172    41.126533    41.126533    82.253066 
    9900    817.55972   -25377.835   -26223.153    535.67063    795.33318    420.42403    391.25469    41.125712    41.125712    82.251424 
   10000    827.75605   -25377.635   -26233.495    227.72482    461.68944    105.51851    115.96652    41.127043    41.127043    82.254086 
   10100    825.91959   -25377.512   -26231.473    141.43415    90.709528   -17.652553    351.24548    41.129658    41.129658    82.259315 
   10200    817.62769     -25377.4   -26222.787    224.11465     268.2337    365.19006    38.920193    41.133154    41.133154    82.266308 
   10300    826.38185   -25377.297   -26231.736   -119.44506   -489.98145    19.142418    112.50386     41.13638     41.13638     82.27276 
   10400    827.32286    -25377.19   -26232.602   -368.15285   -645.64392   -50.072655   -408.74197    41.138466    41.138466    82.276932 
   10500    830.29597   -25377.033   -26235.519   -401.34784   -318.25968   -591.31097   -294.47288    41.139028    41.139028    82.278056 
   10600    818.97988   -25376.904    -26223.69    -101.0063   -334.71613   -286.25684    317.95407    41.137806    41.137806    82.275611 
   10700    825.76687   -25376.774   -26230.577   -82.951677   -466.07674   -8.3619518    225.58366    41.135337    41.135337    82.270674 
   10800    824.75567   -25376.646   -26229.403    22.748343   -330.13661   -96.079519    494.46116    41.132549    41.132549    82.265097 
   10900    823.32531   -25376.514   -26227.793    161.39111       93.483    271.17655    119.51378    41.130459    41.130459    82.260917 
   11000    829.17881   -25376.452   -26233.783    133.84351    654.67929   -18.434634   -234.71413    41.129064    41.129064    82.258128 
   11100    823.48679   -25376.406   -26227.852    279.73612    185.46447    284.68131    369.06259    41.129061    41.129061    82.258122 
   11200    812.98673   -25376.393   -26216.982    419.65865   -56.381536    343.78012    971.57737    41.130129    41.130129    82.260258 
   11300    824.81354   -25376.358   -26229.175    19.475609   -4.7116833   -89.748821    152.88733    41.132256    41.132256    82.264512 
   11400    824.13201    -25376.28   -26228.393   -98.921033     -137.557    87.876137   -247.08224    41.134734    41.134734    82.269468 
   11500     823.1153   -25376.241   -26227.303   -135.72692   -230.60751   -119.17993   -57.393305    41.136213    41.136213    82.272426 
   11600    824.53135   -25376.195   -26228.721   -144.14587   -172.30484   -596.25978    336.12702    41.136576    41.136576    82.273151 
   11700    824.06983   -25376.076   -26228.125   -162.54427   -457.88166    67.443569   -97.194713     41.13632     41.13632     82.27264 
   11800    821.38416   -25376.013   -26225.285   -25.815894    216.51347   -113.48632   -180.47483    41.134446    41.134446    82.268892 
   11900     821.7742   -25375.881   -26225.556    182.07793   -8.6982783    594.13215   -39.200075    41.132512    41.132512    82.265024 
   12000    826.45148   -25375.786   -26230.297    82.746728   -222.42686    285.80148    184.86556    41.130632    41.130632    82.261263 
   12100    818.46642   -25375.732   -26221.987    375.69978    685.16099    849.55349   -407.61515    41.129435    41.129435     82.25887 
   12200    823.90448   -25375.637   -26227.514    109.12784   -186.48165     614.4998   -100.63462    41.130019    41.130019    82.260037 
   12300    831.40272   -25375.514   -26235.145   -127.00609   -653.27442    241.66033    30.595816    41.131713    41.131713    82.263425 
   12400    810.71426   -25375.441   -26213.681    416.44009   -58.757955       784.82    523.25821    41.133335    41.133335     82.26667 
   12500    823.57884   -25375.351   -26226.892   -69.612468    160.57107   -200.24413   -169.16435    41.135269    41.135269    82.270538 
   12600    820.52514   -25375.307   -26223.691   -38.497496   -225.43723    229.66947   -119.72473    41.136365    41.136365     82.27273 
   12700     824.7959   -25375.273   -26228.072   -78.262302   -548.36739    329.10827   -15.527786    41.136569    41.136569    82.273139 
   12800    824.62979   -25375.251   -26227.878   -132.73055    239.09992   -286.79015   -350.50141    41.136062    41.136062    82.272124 
   12900    828.42113   -25375.213   -26231.761   -181.34562   -203.80729   -286.66214   -53.567439    41.135101    41.135101    82.270203 
   13000    819.40099   -25375.216   -26222.437     159.7354     486.3918   -73.335976    66.150391    41.133378    41.133378    82.266755 
   13100    828.01869   -25375.184   -26231.316    19.015369   -169.04345   -287.04269    513.13224    41.132054    41.132054    82.264107 
   13200    821.67108    -25375.18   -26224.748    254.38139    412.95575   -143.65689    493.84532    41.131338    41.131338    82.262677 
   13300    824.25618   -25375.192   -26227.433    208.38462    367.55836   -207.52956    465.12508    41.131752    41.131752    82.263504 
   13400    826.72555    -25375.19   -26229.985    48.080287    267.16362   -194.99149    72.068728     41.13324     41.13324     82.26648 
   13500    830.28162   -25375.209    -26233.68   -97.174583    375.48208   -702.45547    35.449639    41.134868    41.134868    82.269736 
   13600    821.31063   -25375.248   -26224.443    25.318243     531.5239   -251.71939   -203.84978    41.136161    41.136161    82.272322 
   13700    830.60039   -25375.281   -26234.082   -208.97467   -483.27454   -136.46939   -7.1800924    41.136828    41.136828    82.273656 
   13800    820.99904   -25375.362   -26224.236    63.904156    289.16289    120.53829   -217.98872    41.136246    41.136246    82.272493 
   13900    824.15111   -25375.447   -26227.579   -38.024303    -75.71272     456.8141   -495.17428     41.13514     41.13514    82.270279 
   14000    829.23578   -25375.462   -26232.852   -127.38655    346.03448   -469.83512   -258.35902    41.134284    41.134284    82.268568 
   14100    823.34145   -25375.496   -26226.792    56.175793    93.274059    141.87254   -66.619219    41.133147    41.133147    82.266294 
   14200     823.9666   -25375.513   -26227.455     9.980864    230.09912   -21.219931    -178.9366    41.132415    41.132415    82.264831 
   14300    829.06644   -25375.561   -26232.776   -77.022866   -181.53908   -59.939933    10.410418    41.131864    41.131864    82.263727 
   14400    828.29971   -25375.591   -26232.013   -17.897521    250.80804   -267.57381   -36.926786    41.131887    41.131887    82.263774 
   14500    828.35609   -25375.654   -26232.134   -35.847632    28.755724    -244.2502    107.95158    41.132142    41.132142    82.264283 
   14600     830.8742   -25375.694   -26234.778   -107.38644    152.01758    7.6899982    -481.8669    41.132844    41.132844    82.265688 
   14700    820.36584   -25375.756   -26223.975      92.8818    30.414314      117.877    130.35409    41.133605    41.133605     82.26721 
   14800     812.9661   -25375.822    -26216.39    241.36982     322.4552    183.02095    218.63331    41.134326    41.134326    82.268652 
   14900     824.7417   -25375.866   -26228.609   -114.56832   -574.75351    142.34173    88.706816     41.13478     41.13478    82.269561 
   15000    812.99047   -25375.907     -26216.5    300.20461    413.25596    282.80184    204.55604    41.134485    41.134485     82.26897 
   15100    831.97862   -25375.948   -26236.174   -187.66251    52.224246   -551.06346   -64.148318    41.133785    41.133785     82.26757 
   15200    833.02155   -25376.012   -26237.316   -111.72345   -622.76253    84.388275    203.20389    41.132798    41.132798    82.265596 
   15300    830.74932     -25376.1   -26235.055   -38.324358   -246.74726    48.641277    83.132911    41.131968    41.131968    82.263937 
   15400    826.32614   -25376.189   -26230.571    55.295888   -219.05334    514.72199   -129.78099    41.131535    41.131535     82.26307 
   15500    829.08472   -25376.249   -26233.483   -74.265374   -594.89118    194.93413    177.16093    41.131985    41.131985     82.26397 
   15600    818.25249   -25376.336    -26222.37    190.44768    358.56572    209.18844    3.5888692    41.132711    41.132711    82.265423 
   15700    831.46599   -25376.353   -26236.049   -225.37527   -202.07144    -238.2542   -235.80017    41.134079    41.134079    82.268159 
   15800    820.10631   -25376.414   -26224.365    38.718048   -82.498849    128.29876    70.354232    41.134414    41.134414    82.268828 
   15900    814.48925   -25376.445   -26218.588    153.58528    230.36219   -31.044138    261.43778    41.134127    41.134127    82.268254 
   16000    822.64541    -25376.44   -26227.016   -9.1341535    606.87603   -502.01497   -132.26352    41.133573    41.133573    82.267145 
   16100    822.18381    -25376.45   -26226.548    6.2928998    77.079856    17.027781   -75.228938    41.132647    41.132647    82.265294 
   16200     820.7085   -25376.478   -26225.051    199.00631    145.24962   -110.78002    562.54932    41.131129    41.131129    82.262258 
   16300    820.56672   -25376.469   -26224.895    215.21506    189.05872     196.5174    260.06906    41.130225    41.130225    82.260451 
   16400    824.52284    -25376.41   -26228.927    138.35035   -153.27289    292.88604    275.43791    41.130391    41.130391    82.260783 
   16500    825.72583   -25376.369    -26230.13    39.886582   -24.069157   -356.42019     500.1491    41.131025    41.131025     82.26205 
   16600    818.36194   -25376.348   -26222.495    251.67261   -62.621201     474.8029    342.83612     41.13175     41.13175    82.263501 
   16700    827.42753   -25376.326   -26231.846   -125.44287   -346.19921    86.976395   -117.10581    41.132785    41.132785    82.265569 
   16800    820.50244   -25376.273   -26224.633    79.147092   -80.685115    116.30886    201.81754    41.133867    41.133867    82.267735 
   16900    825.17439   -25376.265   -26229.456   -61.442004      126.231   -634.19279    323.63577    41.134449    41.134449    82.268897 
   17000    823.12859   -25376.257   -26227.332   -14.775799    111.22864   -9.7860767   -145.76996    41.134455    41.134455    82.268911 
   17100    830.33622    -25376.21   -26234.738   -181.95583     245.5129   -144.85613   -646.52425    41.134306    41.134306    82.268612 
   17200    825.43243   -25376.172    -26229.63    2.8240646     32.97991   -90.187428    65.679711    41.133752    41.133752    82.267504 
   17300    826.05292   -25376.148   -26230.247   -54.394559   -58.657422   -94.513243   -10.013011    41.133311    41.133311    82.266621 
   17400    834.16445    -25376.11   -26238.596   -229.06876    60.011413   -506.75313   -240.46456    41.133008    41.133008    82.266016 
   17500    825.82269   -25376.117   -26229.978    13.111366    385.45021   -272.91417   -73.201944    41.132449    41.132449    82.264898 
   17600    824.59504   -25376.093   -26228.684    38.166502    225.99396   -302.91482    191.42036    41.132382    41.132382    82.264764 
   17700    842.44328   -25376.076   -26247.122   -441.79945   -253.69733   -346.12008   -725.58095    41.132476    41.132476    82.264952 
   17800    823.14208   -25376.121    -26227.21      113.233     376.3533   -26.816481    -9.837813    41.132111    41.132111    82.264223 
   17900    830.68568   -25376.126   -26235.015   -84.383563   -382.05853  -0.15056418     129.0584    41.132337    41.132337    82.264674 
   18000    821.18055   -25376.137   -26225.198    161.75377    439.49797   -331.83908    377.60241    41.132748    41.132748    82.265497 
   18100    825.02968   -25376.174   -26229.215    38.874073   -299.15715     447.5522   -31.772822    41.133257    41.133257    82.266514 
   18200    813.73907   -25376.191   -26217.558    304.92159   -80.842154    413.16101    582.44591    41.133879    41.133879    82.267759 
   18300    815.90055   -25376.182   -26219.784    120.71852   -171.86902    109.19596    424.82863    41.134721    41.134721    82.269442 
   18400    824.33511   -25376.176   -26228.499   -31.297819   -265.91732   -44.443103    216.46696    41.135024    41.135024    82.270047 
   18500    824.01651   -25376.128   -26228.121   -86.286813     164.1226   -478.46734    55.484302    41.135047    41.135047    82.270094 
   18600    824.40281   -25376.091   -26228.484   -29.856661   0.79088881   -284.00047     193.6396    41.134572    41.134572    82.269143 
   18700     828.9687   -25376.014   -26233.128   -209.62211   -235.07203    -18.10062   -375.69367    41.134088    41.134088    82.268176 
   18800    826.68507   -25375.946   -26230.699   -40.556674   -73.058539    79.662712    -128.2742    41.132877    41.132877    82.265755 
   18900    824.93644   -25375.887   -26228.832    9.2374411   -107.86269    532.45079   -396.87578    41.131417    41.131417    82.262834 
   19000    822.63245   -25375.834   -26226.397    172.58279    220.33902    337.20588   -39.796539    41.130185    41.130185     82.26037 
   19100    827.45176    -25375.79   -26231.335    72.067673     254.6953    -87.80749    49.315211    41.129865    41.129865    82.259729 
   19200    826.50078   -25375.791   -26230.353    78.795456    679.39889   -223.97057   -219.04195    41.130487    41.130487    82.260974 
   19300    812.73031   -25375.752   -26216.076    411.88113    452.60362    415.77344    367.26634    41.132473    41.132473    82.264946 
   19400    822.93886   -25375.762   -26226.641   0.81262932    -89.11654   -202.94602    294.50044    41.134554    41.134554    82.269109 
   19500    826.34367   -25375.781    -26230.18   -244.54881    -215.8488   -629.61146    111.81381    41.136347    41.136347    82.272694 
   19600    828.76746    -25375.78   -26232.686   -196.90638    382.00466   -984.72015    11.996362    41.137324    41.137324    82.274648 
   19700    821.06052   -25375.776   -26224.713    61.147231    315.72048   -387.75248     255.4737    41.137283    41.137283    82.274566 
   19800     821.3394   -25375.783   -26225.009   -16.921364    105.48719   -124.98326   -31.268025     41.13633     41.13633     82.27266 
   19900    827.77052   -25375.785    -26231.66   -54.970059   -95.153357    19.832688   -89.589507    41.134696    41.134696    82.269392 
   20000    813.46261   -25375.812   -26216.894    322.40563    314.15803    110.14119    542.91768    41.132809    41.132809    82.265617 
   20100    836.82363   -25375.779   -26241.014   -231.25226   -108.99027    71.731141   -656.49766     41.13199     41.13199     82.26398 
   20200    820.60533   -25375.752   -26224.219     81.15897   -206.69147    249.67382    200.49456    41.131585    41.131585    82.263171 
   20300    824.82507   -25375.704   -26228.533    16.356308   -146.92439    184.48154    11.511777    41.131706    41.131706    82.263411 
   20400    830.89654   -25375.672   -26234.779   -31.404682    561.16898   -250.64737   -404.73567    41.132265    41.132265    82.264531 
   20500    821.57548    -25375.69    -26225.16    131.65063   -24.667026    131.40153     288.2174    41.132991    41.132991    82.265982 
   20600    818.77865   -25375.706   -26222.284    201.64479    11.276651    103.99297    489.66475    41.133909    41.133909    82.267817 
   20700    827.03996   -25375.731    -26230.85    -120.5243   -137.36291    120.27043   -344.48042    41.134802    41.134802    82.269604 
   20800    835.90306    -25375.73   -26240.014   -460.10239   -325.29472   -771.97525   -283.03721    41.135236    41.135236    82.270471 
   20900    821.51867    -25375.75   -26225.161   -10.063647   -2.1268514    -208.3587    180.29461    41.134771    41.134771    82.269542 
   21000    826.48055   -25375.759     -26230.3   -80.232638    257.45963   -152.78528   -345.37226    41.134039    41.134039    82.268079 
   21100    819.36508   -25375.823   -26223.007    125.97875    275.09357    2.0486099    100.79408    41.132649    41.132649    82.265297 
   21200    823.68979   -25375.854    -26227.51    182.23542    105.01135    167.48182    274.21311    41.131843    41.131843    82.263686 
   21300    821.65882   -25375.893   -26225.449    168.86516    489.19279    84.963176   -67.560484    41.131931    41.131931    82.263862 
   21400    828.60832    -25375.96   -26232.701   -14.916608   -5.6885915   -214.59996    175.53873    41.132558    41.132558    82.265116 
   21500    814.99556   -25376.049   -26218.715    286.80976    525.54554    1.2862221    333.59753    41.133455    41.133455    82.266909 
   21600    821.36489   -25376.093   -26225.345   -19.568327    124.05667    108.58255    -291.3442    41.135058    41.135058    82.270115 
   21700    828.41143   -25376.137   -26232.674   -188.95257   -484.72122    452.10293   -534.23942    41.135995    41.135995    82.271989 
   21800    823.39532   -25376.198   -26227.549    -145.5246   -237.44858    -355.5405    156.41528      41.1357      41.1357    82.271399 
   21900    829.27865   -25376.235   -26233.669   -104.54832    244.44491   -24.691734   -533.39814    41.134607    41.134607    82.269214 
   22000    828.72698   -25376.318   -26233.182   -131.99726    312.03654   -317.92355   -390.10475    41.133055    41.133055    82.266109 
   22100    820.57516   -25376.381   -26224.817    209.53031    68.029858    367.21739    193.34368    41.131714    41.131714    82.263429 
   22200    825.43094   -25376.437   -26229.893     197.7771     231.7782   -12.226297     373.7794    41.131034    41.131034    82.262068 
   22300    838.56627   -25376.484   -26243.521   -334.88442   -90.781154   -167.77658   -746.09554    41.131297    41.131297    82.262593 
   22400    830.54865    -25376.55   -26235.297   -71.671313    66.467173   -277.71243   -3.7686817     41.13163     41.13163     82.26326 
   22500    821.53304    -25376.63   -26226.055    97.146506    59.341059   -268.20718    500.30564    41.132146    41.132146    82.264291 
   22600    830.31436   -25376.686   -26235.191   -245.10055   -476.04234    48.516211   -307.77553    41.132688    41.132688    82.265375 
   22700    816.47325   -25376.761   -26220.955    260.03455    251.00518    451.99626      77.1022    41.132698    41.132698    82.265396 
   22800    821.44263   -25376.789   -26226.121    82.662369    -147.6866    224.16454    171.50917    41.133016    41.133016    82.266032 
   22900    822.43773   -25376.812   -26227.173    90.632126   -365.93821    289.89321    347.94138    41.133436    41.133436    82.266871 
   23000    828.97575    -25376.82   -26233.941   -83.220561    5.4926159   -223.42083   -31.733472    41.134032    41.134032    82.268065 
   23100    820.80244   -25376.844   -26225.514    53.603839    97.293647    35.285509    28.232362    41.134457    41.134457    82.268915 
   23200     827.1726   -25376.875   -26232.131   -77.688728    25.369193   -188.00997   -70.425402    41.134567    41.134567    82.269135 
   23300     822.3246   -25376.906    -26227.15    65.708847    434.20144   -231.71394   -5.3609657    41.134205    41.134205    82.268409 
   23400    823.17578   -25376.929   -26228.053    14.044927   -265.10487    288.11893    19.120725    41.133696    41.133696    82.267393 
   23500    824.78753   -25376.977   -26229.767    17.328903    265.52718   -307.66686    94.126386    41.132563    41.132563    82.265126 
   23600    819.78914   -25376.983   -26224.606    153.38123    203.44912    -77.36889    334.06347    41.131811    41.131811    82.263623 
   23700    835.42174   -25376.963   -26240.749   -196.94095   -165.52746    84.023675   -509.31907     41.13147     41.13147    82.262939 
   23800    821.40763   -25376.961   -26226.257    193.69094    120.94354    116.48625    343.64302    41.131283    41.131283    82.262566 
   23900    822.42361   -25376.939   -26227.285    92.853746   -14.519135    273.99437    19.086009    41.131916    41.131916    82.263831 
   24000    824.03515   -25376.887   -26228.899    37.816726   -110.68874   -152.80216    376.94108    41.132962    41.132962    82.265924 
   24100     821.4427   -25376.837   -26226.169    13.192474   -84.345209    300.91474   -176.99211    41.133932    41.133932    82.267863 
   24200    815.36692    -25376.78    -26219.83    103.46651    109.45096    120.27423    80.674336    41.134319    41.134319    82.268638 
   24300    826.25804   -25376.699    -26231.01   -119.61162   -370.18933   -24.503727    35.858192    41.134352    41.134352    82.268704 
   24400    821.10205   -25376.639   -26225.619    142.93139    252.07272   -17.757755    194.47921    41.133853    41.133853    82.267707 
   24500    817.87924     -25376.6   -26222.247    209.22482   -177.96859    714.11791    91.525146    41.133207    41.133207    82.266415 
   24600    823.96022   -25376.535    -26228.47    23.082444    617.89622   -197.03337   -351.61552    41.132959    41.132959    82.265918 
   24700    827.39444   -25376.445   -26231.931    52.418626    192.12005    195.81651   -230.68068    41.132974    41.132974    82.265947 
   24800    822.79669   -25376.412   -26227.144    74.066702    65.796146    152.89071    3.5132536    41.132985    41.132985     82.26597 
   24900    821.96889   -25376.379   -26226.255    130.36614     -66.8449    79.144258    378.79907    41.133221    41.133221    82.266442 
   25000    825.68524   -25376.369   -26230.088   -46.733104   -5.2146555   -332.52321    197.53855    41.133569    41.133569    82.267138 
   25100    828.96481   -25376.383   -26233.492   -75.993313   -410.72698    17.129424    165.61761    41.133722    41.133722    82.267444 
   25200     816.4066   -25376.394   -26220.519    159.57904    109.61774    235.93079     133.1886    41.133687    41.133687    82.267374 
   25300    834.36319   -25376.382   -26239.073   -281.89711   -505.53256   -346.19845    6.0396666    41.133436    41.133436    82.266873 
   25400    821.68854   -25376.398   -26225.984    50.592312   -151.20716    334.86081   -31.876715    41.132413    41.132413    82.264827 
   25500    827.64339   -25376.372   -26232.115   -54.898307    41.665016    317.15437    -523.5143    41.131784    41.131784    82.263568 
   25600    814.15495   -25376.352   -26218.149    295.20353    -6.326733    390.56587    501.37144    41.131377    41.131377    82.262754 
   25700    824.41055   -25376.353   -26228.754    119.84914    41.475581    262.95681    55.115039    41.131362    41.131362    82.262725 
   25800    828.20946   -25376.343   -26232.672   -41.348816   -176.95819    82.613812   -29.702066    41.132025    41.132025    82.264049 
   25900    826.98093   -25376.361    -26231.42     17.12778   -336.16616    141.79529     245.7542    41.132826    41.132826    82.265652 
   26000    823.76398   -25376.412   -26228.144    71.664792   -39.479137    267.68587    -13.21236      41.1335      41.1335       82.267 
   26100    821.03458   -25376.434   -26225.344    57.977281    659.17342   -357.63865   -127.60293    41.134288    41.134288    82.268575 
   26200    824.50501   -25376.478   -26228.976   -185.48209    443.84167   -327.75648   -672.53146    41.134502    41.134502    82.269003 
   26300    828.31766   -25376.478   -26232.919   -217.58562    327.76011   -311.32533   -669.19162    41.134089    41.134089    82.268179 
   26400     818.8442   -25376.504    -26223.15    200.46142    7.3451928    299.26535    294.77372    41.133084    41.133084    82.266169 
   26500    839.98451   -25376.484   -26244.988   -346.99192   -57.326544    -427.2855   -556.36371    41.132711    41.132711    82.265422 
   26600     822.5221   -25376.496   -26226.945    158.64735    197.39007    268.82266    9.7293229    41.132251    41.132251    82.264502 
   26700    833.62191   -25376.494   -26238.419   -151.91876   -187.64998   -191.05143   -77.054879    41.132242    41.132242    82.264485 
   26800    827.43233   -25376.542   -26232.067   -34.621738   -31.876014   -282.75105    210.76185    41.132115    41.132115     82.26423 
   26900    818.91138   -25376.566   -26223.281    261.86086     232.5346   -87.798379    640.84636    41.132504    41.132504    82.265008 
   27000    823.28934   -25376.566   -26227.808    121.20092    84.005408    74.866461    204.73089    41.133503    41.133503    82.267005 
   27100    832.05508    -25376.57   -26236.874   -190.56138   -131.09306   -152.18158   -288.40951    41.134769    41.134769    82.269539 
   27200    817.13378     -25376.6   -26221.477    21.976147   -399.22783     336.5929    128.56337    41.135334    41.135334    82.270667 
   27300     822.0748   -25376.594    -26226.58   -12.058085    597.89807    -340.0465   -294.02583    41.135251    41.135251    82.270501 
   27400    826.23734   -25376.597   -26230.886   -83.476085    42.703322   -358.95851    65.826937    41.134611    41.134611    82.269222 
   27500    817.31771   -25376.627   -26221.694    154.35154    378.06212    180.74263   -95.750135    41.133392    41.133392    82.266784 
   27600    824.29383   -25376.638   -26228.918    134.32932    451.05528   -181.18541     133.1181    41.132352    41.132352    82.264703 
   27700    825.63666   -25376.678   -26230.347    20.560384   -289.87419   -113.36484    464.92018     41.13163     41.13163     82.26326 
   27800     820.3433   -25376.704   -26224.899    135.30478    395.48687   -263.91719    274.34465    41.131344    41.131344    82.262687 
   27900    827.96931     -25376.7    -26232.78    -80.47272   -65.116896   -176.81671   0.51544598    41.131584    41.131584    82.263168 
   28000    815.03452   -25376.697   -26219.404    256.48109    599.56318     298.2944    -128.4143    41.131854    41.131854    82.263708 
   28100    820.22805   -25376.703   -26224.779    125.26356    887.51648   -270.38703   -241.33877    41.132093    41.132093    82.264187 
   28200    827.83936   -25376.681   -26232.627   -111.14852    46.480326   -187.98653   -191.93936    41.132747    41.132747    82.265495 
   28300    817.83743   -25376.661   -26222.266    178.14754   -263.68465     258.3419    539.78537    41.133234    41.133234    82.266467 
   28400    833.04624   -25376.593   -26237.923   -273.70874   -140.21473   -503.21808   -177.69342    41.133954    41.133954    82.267908 
   28500    821.58898   -25376.558   -26226.041   -34.950653    339.65407   -607.42628    162.92025    41.133907    41.133907    82.267814 
   28600    820.47889   -25376.511   -26224.846    32.353255    214.32937   -469.41257    352.14297    41.133464    41.133464    82.266928 
   28700    827.29299    -25376.44   -26231.822   -131.29376    391.51821    -610.6509   -174.74858    41.132825    41.132825     82.26565 
   28800    815.77583   -25376.362   -26219.835    229.22918    816.57961   -235.04556    106.15349    41.132111    41.132111    82.264222 
   28900    822.15004   -25376.274   -26226.338    96.919301    236.47684    105.41844   -51.137377    41.131591    41.131591    82.263182 
   29000    825.25347   -25376.196   -26229.469   -13.476743      242.878    -152.0459   -131.26234    41.131222    41.131222    82.262445 
   29100    812.51879   -25376.112   -26216.217    398.92707    455.69982    389.16984    351.91154    41.131147    41.131147    82.262294 
   29200    827.09258   -25376.035   -26231.209   -58.540131   -341.00003   -174.52362    339.90325    41.131625    41.131625    82.263251 
   29300    823.80934   -25375.996   -26227.775     69.88766    141.05125    199.74509   -131.13336    41.132296    41.132296    82.264592 
   29400     825.0674   -25375.936   -26229.016   -55.237502    116.50176   -66.892097   -215.32217    41.133331    41.133331    82.266661 
   29500    820.71252   -25375.881   -26224.459    21.740047    161.93377   -337.14805    240.43442    41.134306    41.134306    82.268611 
   29600    829.74971   -25375.814   -26233.736   -264.59474   -169.31147   -523.24902   -101.22374    41.135005    41.135005    82.270011 
   29700     815.2031   -25375.794   -26218.674    192.79666    415.51156   -84.521104    247.39952    41.134306    41.134306    82.268613 
   29800    825.93295   -25375.749   -26229.724     13.74114    416.25152   -111.63014   -263.39796    41.133467    41.133467    82.266933 
   29900    819.55163   -25375.709   -26223.086    229.63071    143.56515    568.84853   -23.521557    41.132497    41.132497    82.264994 
   30000    828.15096   -25375.651   -26231.919    28.442674   -7.3594738    10.026134    82.661362    41.132038    41.132038    82.264076 
   30100    827.86097   -25375.596   -26231.565    68.032727   -166.23861   -38.704193    409.04099    41.132293    41.132293    82.264586 
   30200    821.67533   -25375.606   -26225.179    135.83468    95.578232    221.36191    90.563899    41.132783    41.132783    82.265566 
   30300    821.13756   -25375.597   -26224.614    110.27401    165.31524    61.886416    103.62036     41.13344     41.13344     82.26688 
   30400    816.54735   -25375.551   -26219.822    201.83666    328.97369   -64.108319     340.6446    41.134095    41.134095     82.26819 
   30500    842.23749   -25375.479   -26246.312    -600.5703   -836.96259   -677.76883   -286.97947     41.13487     41.13487     82.26974 
   30600    824.53671   -25375.425   -26227.956   -7.1795003    2.5524791   -230.12436    206.03338    41.134648    41.134648    82.269297 
   30700     825.6098   -25375.368   -26229.009    1.4613993    442.62093   -823.39947    385.16274     41.13404     41.13404    82.268079 
   30800    828.27546   -25375.335   -26231.732   -102.73165    80.554627   -164.89498   -223.85459    41.133219    41.133219    82.266438 
   30900    824.00718   -25375.328   -26227.311    113.04468    362.53595   -492.01932    468.61742     41.13219     41.13219    82.264381 
   31000    827.63908   -25375.322   -26231.061    55.172653    309.06413   -204.76271    61.216536    41.131706    41.131706    82.263412 
   31100    818.17716   -25375.349   -26221.305    230.59159    64.394893   -182.04636    809.42625    41.131718    41.131718    82.263435 
   31200    828.71624   -25375.358   -26232.211   -57.391956     117.4405   -487.10266    197.48629     41.13248     41.13248     82.26496 
   31300    813.74409   -25375.408    -26216.78    295.74974    406.60942    514.69429   -34.054486     41.13312     41.13312    82.266239 
   31400    823.93421    -25375.42   -26227.328    40.381158   -336.95008   -156.67422    614.76777    41.134199    41.134199    82.268397 
   31500    826.16578   -25375.416   -26229.631   -10.768179    8.8514625    450.06012   -491.21612    41.135363    41.135363    82.270727 
   31600    828.70936   -25375.411   -26232.257    -234.3115   -393.95977    89.549526   -398.52427    41.136224    41.136224    82.272447 
   31700    819.28821   -25375.422   -26222.526    90.340761    85.038219   -104.88356    290.86762    41.136107    41.136107    82.272213 
   31800    832.23669   -25375.393   -26235.885   -235.36114   -499.52024   -427.60651    221.04334    41.135902    41.135902    82.271805 
   31900    826.55488    -25375.38   -26229.998   -111.11972   -101.71745   -114.32268   -117.31903    41.135091    41.135091    82.270182 
   32000    822.68079   -25375.388   -26226.001   -38.846019    385.35454   -496.74243   -5.1501691    41.133765    41.133765     82.26753 
   32100      839.755   -25375.377   -26243.643   -249.37944   -487.42586   -348.44306    87.730595    41.132364    41.132364    82.264727 
   32200    826.64017   -25375.433   -26230.139    221.96903    -245.4421    183.96511    727.38409    41.130736    41.130736    82.261471 
   32300     825.8369   -25375.519   -26229.394    138.49405   -65.857547    611.59018   -130.25049    41.129797    41.129797    82.259595 
   32400    831.55677   -25375.607   -26235.396    18.167335    -58.05916    281.06378   -168.50262    41.129718    41.129718    82.259436 
   32500    828.19148   -25375.677   -26231.987   -13.471452   -489.15449  -0.61185036    449.35199    41.130763    41.130763    82.261527 
   32600    829.23323   -25375.721   -26233.108   -127.66701   -432.94225    41.131143    8.8100749    41.132631    41.132631    82.265262 
   32700    826.68467   -25375.779   -26230.532   -159.03589   -101.48434    51.622655   -427.24599    41.134266    41.134266    82.268533 
   32800     820.1237   -25375.883   -26223.851    29.221438   -25.582101   -100.27073    213.51715    41.134678    41.134678    82.269356 
   32900    822.72135   -25375.926   -26226.581   -92.215122    376.83382   -494.39132   -159.08787    41.134775    41.134775     82.26955 
   33000    819.48528   -25375.981    -26223.29    34.757075   -8.5734846    -263.3351    376.17981    41.134016    41.134016    82.268033 
   33100    830.03097   -25376.005   -26234.217   -93.189599   -469.62073    183.21871    6.8332143    41.132844    41.132844    82.265689 
   33200     819.4208    -25376.07   -26223.312    270.14169    249.34734    2.0121771    559.06556    41.131389    41.131389    82.262778 
   33300    822.67069   -25376.114   -26226.716    210.65068    104.09199     77.25023    450.60982    41.130667    41.130667    82.261334 
   33400    823.82888   -25376.151    -26227.95    128.78136    135.06611    219.83263    31.445343    41.130813    41.130813    82.261625 
   33500    823.39888   -25376.182   -26227.537    150.72268    99.501416   -234.01027    586.67691    41.131786    41.131786    82.263572 
   33600    827.11077   -25376.254   -26231.446   -47.890868    120.41954   -332.08397    67.991825    41.133074    41.133074    82.266147 
   33700    821.57222   -25376.289   -26225.756    1.6313144   -163.62868    132.91655     35.60608    41.134557    41.134557    82.269115 
   33800    820.89704   -25376.343   -26225.111   -11.363164    127.28973    283.66353   -445.04276    41.135368    41.135368    82.270735 
   33900    825.21506   -25376.323   -26229.556   -92.719999    403.25063     -66.7655   -614.64513    41.135895    41.135895     82.27179 
   34000     831.4491   -25376.274   -26235.952   -350.44044    111.14952   -76.771148   -1085.6997     41.13593     41.13593     82.27186 
   34100    824.98221   -25376.192   -26229.184   -70.096069   -669.00071    508.42599   -49.713491    41.135285    41.135285     82.27057 
   34200     830.8167   -25376.124   -26235.149    -178.3064   -252.37327    374.23913   -656.78506     41.13398     41.13398     82.26796 
   34300    824.94614   -25376.079   -26229.033    111.06101    446.73666   -175.56496    62.011325      41.1323      41.1323    82.264601 
   34400     835.0393   -25376.075   -26239.466   -54.960175   -125.80908    247.44175    -286.5132     41.13081     41.13081    82.261621 
   34500    828.23766   -25376.091   -26232.449    102.79184    43.234212    321.99019   -56.848893    41.130309    41.130309    82.260617 
   34600    829.81016   -25376.135   -26234.119    70.686949    263.47968    121.93862   -173.35746    41.130759    41.130759    82.261517 
   34700      825.551    -25376.18    -26229.76    41.439781    351.20862   -84.618217   -142.27106      41.1321      41.1321      82.2642 
   34800    826.42908   -25376.204   -26230.692   -71.270296    318.78492   -801.36981      268.774     41.13382     41.13382    82.267641 
   34900    828.56487   -25376.262   -26232.959   -125.17987    118.26772   -115.86452   -377.94282    41.134947    41.134947    82.269895 
   35000    820.91497   -25376.298   -26225.084   0.03353663   -20.858357    172.19162   -151.23265    41.135608    41.135608    82.271216 
   35100    827.43704   -25376.276   -26231.806   -237.76216   -219.40121   -208.89308   -284.99217    41.135752    41.135752    82.271503 
   35200    820.95151   -25376.268   -26225.092   -40.255235    35.718356   -187.55427     31.07021    41.134771    41.134771    82.269543 
   35300     819.8617   -25376.235   -26223.933    46.492974    673.94006   -447.48513   -86.976011     41.13299     41.13299    82.265979 
   35400    834.60529   -25376.219   -26239.161    -167.4102    241.70022   -533.00056   -210.93027    41.130738    41.130738    82.261477 
   35500    823.90544   -25376.253   -26228.131    250.33924    407.43435    394.96857   -51.385197    41.128504    41.128504    82.257008 
   35600    813.84596   -25376.312   -26217.789    563.16153    899.67327    401.00131       388.81    41.127487    41.127487    82.254974 
   35700    827.94447   -25376.331   -26232.386    113.81824    199.41074   -246.25659    388.30057    41.128603    41.128603    82.257205 
   35800     825.4458   -25376.351   -26229.822    93.626961    239.62153    -63.64385     104.9032    41.130828    41.130828    82.261656 
   35900    830.25292   -25376.391   -26234.833   -106.63609    23.051002   -194.37441   -148.58487    41.133308    41.133308    82.266617 
   36000    821.38379   -25376.412   -26225.683   -172.36321    138.97277   -775.81889    119.75648    41.135532    41.135532    82.271064 
   36100    825.43033   -25376.386   -26229.841   -249.63025   -275.81048    76.358053   -549.43832    41.136846    41.136846    82.273692 
   36200    828.56766   -25376.404   -26233.103   -312.76363   -402.18668   -238.34931    -297.7549    41.136227    41.136227    82.272454 
   36300    821.21116   -25376.378    -26225.47  -0.84772386   -93.439305    6.9553066    83.940827    41.134409    41.134409    82.268818 
   36400    826.70907   -25376.358   -26231.135   -55.426281    152.75778   -518.46601    199.42938    41.132044    41.132044    82.264088 
   36500    821.10449   -25376.337   -26225.319     252.1667    -11.79502    296.10594    472.18917    41.129935    41.129935    82.259869 
   36600    822.93221   -25376.321   -26227.193    250.91261    327.55557    305.99266     119.1896    41.128939    41.128939    82.257878 
   36700     825.9702   -25376.293   -26230.307    242.67494    63.402974    182.35062    482.27123    41.129508    41.129508    82.259015 
   36800     819.1771   -25376.297   -26223.287    105.47871   -124.63877    7.3975871    433.67732    41.131191    41.131191    82.262383 
   36900    827.53847   -25376.295    -26231.93   -114.22203   -109.19108   -238.74246    5.2674627    41.133242    41.133242    82.266485 
   37000    828.04246   -25376.286   -26232.442   -167.35065   -16.175997   -455.53005   -30.345904    41.135026    41.135026    82.270051 
   37100    817.08652   -25376.293   -26221.121    3.4470454   -187.02248     103.5195    93.844117    41.135805    41.135805    82.271609 
   37200    822.59139   -25376.282   -26226.802   -169.69829   -217.58018   -429.61985    138.10516    41.135612    41.135612    82.271224 
   37300    821.94426   -25376.272   -26226.123    -90.25338    42.080272   -165.38213   -147.45828    41.134565    41.134565     82.26913 
   37400    826.51413    -25376.22   -26230.796   -26.828864    141.12154   -127.82625   -93.781876    41.133189    41.133189    82.266377 
   37500    835.52659   -25376.163   -26240.057   -248.81432   -715.47281   -349.16126     318.1911    41.131806    41.131806    82.263611 
   37600    827.38003   -25376.137   -26231.608    21.687412   -374.42295    327.70256    111.78262    41.130414    41.130414    82.260827 
   37700     829.2962   -25376.072   -26233.525    54.842715   -144.71459    325.02365   -15.780916    41.130179    41.130179    82.260358 
   37800    825.55359   -25376.024   -26229.607    99.163814    134.71346    11.632846    151.14514    41.130927    41.130927    82.261854 
   37900    822.26812   -25375.999   -26226.185    51.361711   -322.87134    68.604152    408.35232    41.132361    41.132361    82.264722 
   38000    820.61265   -25375.982   -26224.456    83.211255   -279.30391    378.21313    150.72455    41.133968    41.133968    82.267937 
   38100    819.97617   -25375.946   -26223.762   -21.697255   -421.26326   -112.79625    468.96774    41.135514    41.135514    82.271029 
   38200    825.51636   -25375.844   -26229.388    -216.2217   -329.98885   -396.02526    77.348998    41.136711    41.136711    82.273422 
   38300    829.52386   -25375.767   -26233.455   -350.23049    -333.6161   -707.00167   -10.073691    41.136567    41.136567    82.273134 
   38400    820.08763   -25375.678    -26223.61    67.816515   -333.33888     246.1823    290.60613    41.135569    41.135569    82.271139 
   38500    827.41789   -25375.606   -26231.116   -77.349113   -319.78249    45.093032    42.642116       41.134       41.134       82.268 
   38600    825.42364    -25375.52   -26228.968    39.857583    323.31541    185.92861   -389.67127    41.132568    41.132568    82.265135 
   38700    829.27167   -25375.454   -26232.881   -6.3376104   -324.27062   -39.110386    344.36818     41.13137     41.13137    82.262741 
   38800    822.01665    -25375.46   -26225.385    226.77202   -139.05171    307.98523    511.38254     41.13056     41.13056    82.261119 
   38900    818.47339   -25375.435   -26221.697    287.05986    251.11659    -67.20235    677.26533    41.130861    41.130861    82.261722 
   39000    825.88549   -25375.414    -26229.34    61.117118    96.110702   -391.93348    479.17414    41.131823    41.131823    82.263647 
   39100     815.2957   -25375.394    -26218.37    182.06395    398.07782    404.39968   -256.28566    41.133193    41.133193    82.266387 
   39200    819.81233   -25375.358   -26223.004    41.645489   -75.457065   -162.45645    362.84998    41.134627    41.134627    82.269255 
   39300    825.20834   -25375.358   -26228.584   -78.578539   -80.868526    85.696791   -240.56388    41.135376    41.135376    82.270752 
   39400    829.19058   -25375.347    -26232.69   -242.53093   -309.85617   -229.30185   -188.43477    41.135506    41.135506    82.271013 
   39500    820.06372   -25375.373   -26223.279    24.869613   -54.085928   -320.58536    449.28012    41.134418    41.134418    82.268836 
   39600    819.23313   -25375.381   -26222.429    150.22088   -80.519443   -139.13947    670.32156    41.133047    41.133047    82.266094 
   39700    831.17176   -25375.386   -26234.777    19.998566   -205.68853    145.77087    119.91336    41.132054    41.132054    82.264107 
   39800    819.21197   -25375.414    -26222.44    245.61999    97.810598    614.94139    24.107984    41.131549    41.131549    82.263099 
   39900    818.78815   -25375.449   -26222.036    287.34402    302.30903    282.05995    277.66308    41.131616    41.131616    82.263232 
   40000    826.97591   -25375.468   -26230.521    1.2784332   -120.85185    237.72268   -113.03553    41.132463    41.132463    82.264926 
   40100    826.67678   -25375.509   -26230.253     1.940393      517.634    251.44881   -763.26163    41.133479    41.133479    82.266958 
   40200    819.84872   -25375.582   -26223.266    176.11033    389.05279     80.23406     59.04415    41.134249    41.134249    82.268498 
   40300    823.01082   -25375.643   -26226.597    10.545297    166.51994   -79.701417   -55.182627    41.135018    41.135018    82.270037 
   40400    830.08594   -25375.654   -26233.923   -253.57982    28.798913   -277.12732   -512.41106    41.135693    41.135693    82.271386 
   40500    825.44639   -25375.692   -26229.164   -74.670005   -366.66329    109.94003    32.713249    41.135288    41.135288    82.270577 
   40600     828.5956   -25375.692    -26232.42   -105.93013   -109.78363   -95.898999   -112.10776    41.134678    41.134678    82.269357 
   40700    830.74856   -25375.727   -26234.681   -110.82162   -355.39216    440.25731   -417.33002    41.133642    41.133642    82.267284 
   40800     819.0121   -25375.759   -26222.578    255.53763   -127.86177    346.59134    547.88332    41.132554    41.132554    82.265108 
   40900    821.54786   -25375.812   -26225.253    87.634169     297.9477    -37.86712    2.8219299    41.131758    41.131758    82.263516 
   41000    824.34242   -25375.883   -26228.214    139.38771    507.14678     18.68605   -107.66971    41.131106    41.131106    82.262213 
   41100    825.38721       -25376   -26229.411    175.25014    180.80538    362.73578   -17.790749    41.130737    41.130737    82.261474 
   41200    827.88037    -25376.11   -26232.099    44.753714    97.371591    156.77317   -119.88362    41.131348    41.131348    82.262696 
   41300    829.33795    -25376.23   -26233.726    15.292264    -125.6366    76.593168    94.920221    41.132594    41.132594    82.265188 
   41400    833.14061   -25376.311   -26237.739   -276.36938    -563.9386    277.04973   -542.21925    41.134346    41.134346    82.268693 
   41500    824.83437    -25376.41   -26229.249   -109.99469   -548.71032    350.48586   -131.75961    41.135371    41.135371    82.270742 
   41600    825.07484   -25376.504   -26229.592   -73.996028   -342.19476    275.78534   -155.57866    41.135679    41.135679    82.271359 
   41700    823.01171   -25376.576   -26227.531    41.909774    474.85249   -35.316387   -313.80678    41.135602    41.135602    82.271204 
   41800    817.45481    -25376.67   -26221.879     119.6832    163.03025    238.70646   -42.687109    41.135005    41.135005    82.270011 
   41900    830.38045   -25376.758   -26235.331   -195.85273   -852.06418    81.521266    182.98471    41.134022    41.134022    82.268043 
   42000    814.19863   -25376.848    -26218.69     267.4683    92.405884    337.45758    372.54145    41.132706    41.132706    82.265413 
   42100    831.54586    -25376.89   -26236.668   -192.28247   -60.846193   -514.17941    -1.821806    41.131787    41.131787    82.263575 
   42200    809.89238   -25376.947   -26214.336    510.57667     433.3131    363.33996    735.07695    41.130784    41.130784    82.261569 
   42300    824.14775   -25376.994   -26229.123    59.197979    175.83926    30.855453   -29.100781    41.130516    41.130516    82.261032 
   42400    824.18188   -25377.021   -26229.186   -14.490898    175.15298   -89.738921   -128.88675    41.130633    41.130633    82.261267 
   42500    821.32004   -25377.022   -26226.227    181.39641    77.157965    427.96278    39.068486      41.1314      41.1314    82.262799 
   42600    821.21558   -25377.052   -26226.149    115.36553     319.2765    127.00349   -100.18339    41.132574    41.132574    82.265149 
   42700    829.13439   -25377.052   -26234.337   -198.95275   -67.426118   -293.58635   -235.84579    41.133981    41.133981    82.267963 
   42800    832.44305   -25377.044    -26237.75    -282.4027   -396.92564   -261.82246   -188.45998    41.134831    41.134831    82.269661 
   42900    828.61021   -25377.066   -26233.809   -176.43711   -109.12927   -272.45009   -147.73197    41.134622    41.134622    82.269245 
   43000    833.76596   -25377.043   -26239.116   -258.78526    57.035398   -505.52072   -327.87045     41.13407     41.13407     82.26814 
   43100    821.87989   -25377.031   -26226.816    45.032453    14.140873     271.5663   -150.60981    41.132959    41.132959    82.265918 
   43200    818.29547   -25376.989   -26223.067    228.77736    775.35433   -271.55761    182.53535    41.132042    41.132042    82.264083 
   43300    836.43029   -25376.936   -26241.765   -334.96129   -76.621228   -562.12718   -366.13546    41.131696    41.131696    82.263393 
   43400    822.27259   -25376.927   -26227.117    193.43405    495.65185    355.84697   -271.19666    41.131056    41.131056    82.262111 
   43500    819.15744   -25376.889   -26223.859     234.2902    466.59768    373.33077   -137.05787    41.131214    41.131214    82.262429 
   43600    828.63917   -25376.839   -26233.612    -70.96948   -121.00704   -267.21055    175.30915    41.132202    41.132202    82.264404 
   43700    818.17558   -25376.808   -26222.762    238.94965    722.57284    -61.28978    55.565877    41.133209    41.133209    82.266418 
   43800     830.0184   -25376.755   -26234.954   -172.41799     98.69266   -75.621486   -540.32514    41.134395    41.134395     82.26879 
   43900    810.89135   -25376.718   -26215.141    345.99004     211.9011    547.61586    278.45316    41.135175    41.135175    82.270349 
   44000    823.57744   -25376.654   -26228.193   -176.22644     93.81948   -393.47866   -229.02013    41.135919    41.135919    82.271838 
   44100    827.17218   -25376.569   -26231.825   -158.00185   -122.70076   -78.912296    -272.3925    41.135884    41.135884    82.271769 
   44200    830.40227   -25376.528   -26235.124   -281.21674   -652.06293     250.3559   -441.94317    41.134689    41.134689    82.269378 
   44300    816.69668   -25376.457   -26220.882    178.19964   -13.745271    477.51141    70.832792    41.133087    41.133087    82.266175 
   44400     825.4164   -25376.405   -26229.846    7.9015288     -383.854   -24.262703    431.82129    41.131571    41.131571    82.263143 
   44500    821.39791   -25376.329   -26225.614    137.69195   -162.77086    310.42404    265.42267    41.130832    41.130832    82.261663 
   44600    823.10144   -25376.278   -26227.325    136.02002   -119.05641    386.47208     140.6444    41.130525    41.130525     82.26105 
   44700    819.92694   -25376.219   -26223.984    208.19207    648.30589   -115.89292    92.163232    41.130973    41.130973    82.261946 
   44800    829.49479   -25376.233   -26233.891    -108.4145   -385.48261    257.64608   -197.40699    41.131527    41.131527    82.263054 
   44900    821.91486   -25376.249   -26226.069    74.193955   -422.17282    608.19899    36.555692    41.132235    41.132235    82.264471 
   45000    829.76417    -25376.29   -26234.226   -175.69666   -460.98603   -72.054733    5.9507885    41.133047    41.133047    82.266094 
   45100    831.97636   -25376.327    -26236.55   -198.90132   -417.85863    205.98395   -384.82927    41.133684    41.133684    82.267368 
   45200    816.19694   -25376.362    -26220.27    56.809727    448.89025    98.470586   -376.93165    41.133823    41.133823    82.267645 
   45300    831.42089   -25376.316   -26235.965   -211.16376   -229.05128    55.147631   -459.58762    41.134158    41.134158    82.268315 
   45400    835.33489    -25376.31   -26240.006   -300.37771   -16.878405   -555.33803    -328.9167    41.133831    41.133831    82.267662 
   45500    820.42169   -25376.368   -26224.644    111.30552   -268.02941    337.70327     264.2427    41.132901    41.132901    82.265802 
   45600    822.76187   -25376.412   -26227.108    176.33056    320.56832    5.2384643     203.1849    41.132441    41.132441    82.264882 
   45700    827.30985   -25376.426   -26231.824  -0.76755646    241.33244    -205.5287   -38.106405    41.133147    41.133147    82.266293 
   45800    825.99012   -25376.405   -26230.439    10.348552    264.53314   -485.75977    252.27228    41.134573    41.134573    82.269147 
   45900    826.98216   -25376.401    -26231.46   -194.39331     -94.4287   -330.12904   -158.62219    41.135936    41.135936    82.271871 
   46000    830.59964   -25376.417   -26235.218   -355.51165   -438.49914   -257.72185   -370.31397    41.136255    41.136255    82.272511 
   46100    824.34426    -25376.42   -26228.752   -56.996448   -53.147186   -209.71008    91.867915    41.135526    41.135526    82.271051 
   46200    825.71856   -25376.409   -26230.162   -81.321452    84.302749   -346.79513    18.528028    41.134123    41.134123    82.268245 
   46300    816.47262   -25376.406   -26220.599    259.02546    563.82694   -11.561058     224.8105    41.132409    41.132409    82.264818 
   46400     829.5167   -25376.396   -26234.076    -72.34587   -234.09684    173.60015   -156.54092    41.131132    41.131132    82.262265 
   46500    828.26168   -25376.398   -26232.781    95.403809    151.57899   -115.78406    250.41649    41.130332    41.130332    82.260664 
   46600    827.25172    -25376.43   -26231.769    10.078945   -63.258749   -92.897765    186.39335    41.130204    41.130204    82.260409 
   46700    821.31727   -25376.425   -26225.627    247.68016    270.79406    393.23313    79.013285    41.131008    41.131008    82.262016 
   46800    826.70863   -25376.445   -26231.222    13.003186   -23.382838    137.14478   -74.752384    41.132262    41.132262    82.264525 
   46900    822.93221   -25376.451   -26227.324   -10.381529    -293.5275   -28.115339    290.49825    41.133722    41.133722    82.267443 
   47000    824.48833   -25376.415   -26228.896   -183.02605   -396.55937   -227.75306     75.23428    41.135006    41.135006    82.270012 
   47100    816.91327   -25376.355   -26221.004    135.52273    184.77944    134.29079    87.497964    41.135416    41.135416    82.270832 
   47200     815.9063   -25376.325   -26219.933    112.80128      278.912    302.78373   -243.29188    41.135017    41.135017    82.270034 
   47300    826.17901   -25376.249   -26230.478   -76.265348   -20.736351     162.3923   -370.45199     41.13438     41.13438    82.268759 
   47400      831.098   -25376.221   -26235.537   -166.97721   -423.08424   -85.235573    7.3881854    41.133005    41.133005     82.26601 
   47500    829.21946   -25376.166   -26233.539   -50.029458    -203.3399   -55.679931    108.93146    41.131896    41.131896    82.263791 
   47600    820.32018   -25376.158    -26224.33    114.34828    206.45607    153.95895   -17.370166    41.130851    41.130851    82.261701 
   47700    830.27414   -25376.135   -26234.598    68.445125   -67.206312    233.06952    39.472165    41.130556    41.130556    82.261112 
   47800    830.30776   -25376.127   -26234.625    77.936518    37.120028   -77.111371     273.8009    41.131391    41.131391    82.262783 
   47900    820.18596   -25376.138   -26224.171    88.427232   -369.40851    581.03666    53.653555    41.133074    41.133074    82.266149 
   48000     826.4744   -25376.143   -26230.677   -116.90463   -326.34788    123.75109   -148.11709     41.13477     41.13477     82.26954 
   48100    816.93074   -25376.172    -26220.84    122.38168   -164.88133    536.28901   -4.2626328    41.135696    41.135696    82.271392 
   48200    824.89788   -25376.174   -26229.079   -67.846798  -0.40838712   -259.69526    56.563248    41.136186    41.136186    82.272372 
   48300    826.13694    -25376.17   -26230.356   -277.46407   -261.04221   -166.96435   -404.38565     41.13573     41.13573    82.271459 
   48400    821.17568   -25376.176   -26225.232    65.988458    302.71839    181.45773   -286.21074    41.134047    41.134047    82.268094 
   48500    827.55417   -25376.155   -26231.806    51.903498     10.50231   -280.78247    425.99065    41.132445    41.132445     82.26489 
   48600    822.69549   -25376.125   -26226.753    119.64604    113.95249    461.57365   -216.58801    41.131334    41.131334    82.262667 
   48700    825.53765   -25376.108   -26229.674    72.615689   -300.86812    486.27028    32.444897    41.130636    41.130636    82.261273 
   48800    831.81954   -25376.085   -26236.146   -50.169618    461.14575   -320.30588   -291.34873    41.130794    41.130794    82.261587 
   48900    815.50046   -25376.098   -26219.287    271.69609    456.55415    629.91466   -271.38054    41.131365    41.131365     82.26273 
   49000    822.08683    -25376.08   -26226.079    46.394718    199.60215   -230.75173    170.33374    41.132539    41.132539    82.265078 
   49100    834.02129    -25376.07   -26238.408   -252.76176   -307.06643    143.68493   -594.90378    41.133712    41.133712    82.267424 
   49200    818.23508   -25376.111   -26222.127    118.14189    106.18733    62.294201    185.94415    41.134295    41.134295    82.268589 
   49300     832.5541   -25376.123   -26236.944   -323.75317   -602.74348   -88.244534   -280.27149    41.134722    41.134722    82.269444 
   49400    825.78631   -25376.101   -26229.924   -49.862488     193.9102   -49.032287   -294.46538    41.134912    41.134912    82.269824 
   49500    825.47049   -25376.126   -26229.623   -39.056838    377.12664   -405.36309   -88.934064    41.134319    41.134319    82.268638 
   49600    811.32608   -25376.148    -26215.02    300.11621    559.26595    92.867217    248.21546    41.133412    41.133412    82.266823 
   49700    824.99816    -25376.16   -26229.168   -62.877948    -104.3144    297.67157   -381.99101     41.13236     41.13236    82.264719 
   49800    827.58356   -25376.176   -26231.858    8.4266039   -217.93505    173.60798    69.606885    41.131322    41.131322    82.262645 
   49900    828.10238    -25376.18   -26232.398   -22.339212    293.04294   -376.37928    16.318697    41.130885    41.130885     82.26177 
   50000    824.14161    -25376.16   -26228.283    102.28964    305.33631    119.14735   -117.61475    41.131209    41.131209    82.262417 
Loop time of 1489.38 on 1 procs for 50000 steps with 8000 atoms

Pair  time (%) = 1348.08 (90.5124)
Neigh time (%) = 100.183 (6.72646)
Comm  time (%) = 8.66694 (0.581914)
Outpt time (%) = 0.625169 (0.041975)
Other time (%) = 31.8312 (2.1372)

Nlocal:    8000 ave 8000 max 8000 min
Histogram: 1 0 0 0 0 0 0 0 0 0
Nghost:    9119 ave 9119 max 9119 min
Histogram: 1 0 0 0 0 0 0 0 0 0
Neighs:    299593 ave 299593 max 299593 min
Histogram: 1 0 0 0 0 0 0 0 0 0

Total # of neighbors = 299593
Ave neighs/atom = 37.4491
Neighbor list builds = 5000
Dangerous builds = 0
unfix		1

# Melt half the system
region  liquid block INF INF INF INF INF ${nzhalf}
region  liquid block INF INF INF INF INF 10
group	liquid_group region liquid
4024 atoms in group liquid_group

# Heat up one side to Tmelt to make sure it is melted
fix 2 liquid_group npt temp ${Tmelt} ${Tmelt} 1 z 0 0 10 drag 1.0
fix 2 liquid_group npt temp 2000 ${Tmelt} 1 z 0 0 10 drag 1.0
fix 2 liquid_group npt temp 2000 2000 1 z 0 0 10 drag 1.0
run		${eqsteps}
run		50000
Memory usage per processor = 5.95825 Mbytes
Step Temp TotEng PotEng Press Pxx Pyy Pzz Lx Ly Lz 
   50000    824.14161    -25376.16   -26228.283    102.28964    305.33631    119.14735   -117.61475    41.131209    41.131209    82.262417 
   50100    819.25949   -25373.826   -26220.901    318.05711    285.43285     348.8158    319.92268    41.131209    41.131209     82.26242 
   50200    823.68936   -25368.558   -26220.213    351.32485     359.1267    346.51047    348.33739    41.131209    41.131209    82.262509 
   50300    815.77876   -25363.542   -26207.018    735.01417     587.8165    899.70617    717.51984    41.131209    41.131209    82.262721 
   50400    827.64063   -25358.503   -26214.244     564.5499    713.08072    566.26528     414.3037    41.131209    41.131209    82.263103 
   50500     835.6304   -25352.818    -26216.82    570.95246    1016.7718    265.64869    430.43693    41.131209    41.131209    82.263663 
   50600    830.42872     -25346.9   -26205.523      884.912      1307.46    999.66731    347.60866    41.131209    41.131209    82.264497 
   50700    835.60614   -25340.775   -26204.752    1006.0498    1268.2847    954.17331    795.69144    41.131209    41.131209    82.265621 
   50800    837.58438    -25334.58   -26200.602    1074.6613    1448.7503    766.02088    1009.2126    41.131209    41.131209    82.267123 
   50900    839.62712   -25328.251   -26196.385    1201.4632    1591.6116    884.56235    1128.2156    41.131209    41.131209    82.269046 
   51000    842.17775   -25321.871   -26192.642    1315.9722    1383.6195    1310.4559    1253.8413    41.131209    41.131209    82.271456 
   51100    849.55439   -25315.411   -26193.809    1321.2803    1815.0767     1030.846    1117.9182    41.131209    41.131209    82.274424 
   51200    851.29765   -25308.933   -26189.134    1430.5443    1803.9421    1001.9943    1485.6964    41.131209    41.131209    82.277961 
   51300    848.34493   -25302.347   -26179.495     1695.571    1909.0557    1437.8949    1739.7624    41.131209    41.131209    82.282171 
   51400    862.52982   -25295.759   -26187.574    1500.8215    1413.8831    1489.1672    1599.4142    41.131209    41.131209     82.28712 
   51500    861.48207   -25289.143   -26179.874    1676.6464    1813.9929    1406.5906    1809.3558    41.131209    41.131209    82.292804 
   51600    862.83108   -25282.446   -26174.571    1901.8143    2115.9727    2009.5427    1579.9273    41.131209    41.131209    82.299299 
   51700    865.42027   -25275.701   -26170.504    1842.0653    2120.8468    1777.0218    1628.3275    41.131209    41.131209    82.306542 
   51800    870.89681   -25268.917   -26169.382     1902.591    2146.1496    1820.0997    1741.5236    41.131209    41.131209    82.314441 
   51900    879.77678    -25262.11   -26171.756    1867.8467     2237.211    1762.9306    1603.3985    41.131209    41.131209    82.323044 
   52000    875.73993   -25255.297    -26160.77     2126.971    2481.9307    2043.1222      1855.86    41.131209    41.131209    82.332413 
   52100    881.25409   -25248.393   -26159.567    2120.6424    2337.5752    1728.5025    2295.8496    41.131209    41.131209    82.342592 
   52200    885.25631   -25241.468    -26156.78    2148.6117    2365.9341    2090.3112    1989.5897    41.131209    41.131209    82.353699 
   52300    886.65571    -25234.53   -26151.289    2223.5637     2448.393    1960.3887    2261.9095    41.131209    41.131209    82.365659 
   52400    885.22787   -25227.535   -26142.818    2336.2132    2522.3925    2621.9389    1864.3082    41.131209    41.131209    82.378487 
   52500    893.86977   -25220.549   -26144.767    2225.8331    2372.7904    2192.1723    2112.5365    41.131209    41.131209    82.392066 
   52600    903.84346   -25213.467   -26147.998    2092.5626    2342.9346     2309.672    1625.0812    41.131209    41.131209    82.406466 
   52700    901.99834   -25206.381   -26139.004    2279.7332    2539.1845    2448.0043    1852.0108    41.131209    41.131209    82.421585 
   52800    909.10329   -25199.249   -26139.218    2118.9881    2923.2274    1771.7212    1662.0158    41.131209    41.131209     82.43747 
   52900    907.10889   -25192.072   -26129.979    2393.2414    2978.1484    2174.1936    2027.3822    41.131209    41.131209    82.454032 
   53000    910.28809   -25184.964   -26126.158    2370.9931    2853.8892    2252.4704    2006.6197    41.131209    41.131209    82.471337 
   53100    912.85989   -25177.743   -26121.597    2333.6152    2541.7165    2178.7118    2280.4173    41.131209    41.131209    82.489462 
   53200    916.03161   -25170.488    -26117.62     2332.068    2597.5449    1856.2654    2542.3936    41.131209    41.131209    82.508395 
   53300    915.29516   -25163.215   -26109.586    2437.9806    2591.9379    2524.7294    2197.2746    41.131209    41.131209    82.528085 
   53400    914.18974   -25155.953   -26101.182    2500.4191    2652.5598    2388.5757    2460.1218    41.131209    41.131209     82.54848 
   53500    926.08726   -25148.585   -26106.115    2293.3541     2747.276    2070.5351    2062.2511    41.131209    41.131209    82.569637 
   53600    927.14914   -25141.191   -26099.819    2345.7008    2715.6232    2335.1259    1986.3533    41.131209    41.131209    82.591417 
   53700     929.9787   -25133.765   -26095.318    2283.4496     2686.411    2019.6031    2144.3346    41.131209    41.131209    82.613678 
   53800    929.53338   -25126.355   -26087.447    2457.1762    3006.0548    2592.5166    1772.9571    41.131209    41.131209    82.636455 
   53900    934.87275   -25118.835   -26085.448     2265.773    2696.8216    1980.2062    2120.2911    41.131209    41.131209    82.659593 
   54000    938.55952   -25111.402   -26081.828    2037.8867    2381.4449    1882.7369    1849.4783    41.131209    41.131209     82.68316 
   54100    940.59055   -25103.813   -26076.338     2175.247    2432.8026    2361.2794    1731.6589    41.131209    41.131209    82.707103 
   54200    940.97245   -25096.246   -26069.166    2260.8553    2529.7079    2471.3559    1781.5021    41.131209    41.131209    82.731204 
   54300    952.30124    -25088.69   -26073.323    2022.9253     2140.743    2106.6907    1821.3423    41.131209    41.131209    82.755559 
   54400    946.54869   -25081.058   -26059.744    2156.5136    2641.0162    2207.0327     1621.492    41.131209    41.131209    82.780223 
   54500    958.92236   -25073.421   -26064.901    1847.7577    2711.9551    1448.6536    1382.6643    41.131209    41.131209    82.805054 
   54600    967.02227    -25065.74   -26065.595    1811.1603    1977.9003    2264.6954    1190.8852    41.131209    41.131209     82.82996 
   54700    957.22781   -25057.997   -26047.725    2140.8218    2461.2497    2233.2628    1727.9529    41.131209    41.131209    82.854917 
[...]
  336300    853.88306    -25351.28   -26234.154   -91.527388   -171.47828   -77.733484   -25.370399    41.143509    41.143509    82.240957 
  336400    829.81644   -25351.273   -26209.263    122.42899    123.25408    30.098511    213.93437    41.144227    41.144227    82.295136 
  336500    835.69812   -25351.276   -26215.348   -409.35556   -318.89477   -718.17248   -190.99942    41.144784    41.144784    82.344388 
  336600    831.65973   -25351.267   -26211.163   -544.95337   -978.09445    142.53631   -799.30197    41.144928    41.144928    82.367048 
  336700    839.70168   -25351.289     -26219.5   -441.87902   -590.79009   -863.49117     128.6442    41.144697    41.144697    82.321084 
  336800    834.84092   -25351.274   -26214.459    15.346962   -508.86169     50.41526    504.48732    41.144203    41.144203    82.286803 
  336900    824.29957   -25351.271   -26203.557    261.95259    127.61553    367.40649    290.83574     41.14365     41.14365    82.284898 
  337000    836.11013    -25351.28   -26215.778    114.41313    499.21135    -241.4957    85.523732    41.143209    41.143209    82.269862 
  337100    838.74015   -25351.284   -26218.501   -1.3474508   -299.16223    385.89887   -90.778989    41.142878    41.142878    82.288182 
  337200    841.96496   -25351.281   -26221.832   -360.20278   -197.06858   -182.38468   -701.15509    41.142578    41.142578    82.318926 
  337300    836.44603   -25351.286   -26216.131    42.313976   -219.65472    282.95826    63.638383    41.142307    41.142307    82.292165 
  337400    841.59046   -25351.282   -26221.446    138.42181    67.830517   -176.81548    524.25039    41.142123    41.142123    82.260548 
  337500    833.96328   -25351.285   -26213.563    222.19697    189.12084    600.79427    -123.3242    41.142055    41.142055    82.272676 
  337600    843.49027   -25351.285   -26223.413   -65.857512   -764.99052    228.40989     339.0081    41.142172    41.142172    82.283201 
  337700    830.33615   -25351.282    -26209.81     92.31201   -303.73482     681.6133   -100.94245    41.142272    41.142272    82.296882 
  337800    834.51441   -25351.284   -26214.132    37.760036   -453.55778    686.58044   -119.74255    41.142421    41.142421    82.288223 
  337900     836.9933   -25351.283   -26216.694     104.7953    374.73213   -213.03765    152.69142    41.142596    41.142596    82.272588 
  338000    829.46409   -25351.278   -26208.904    330.50063   -50.480997    693.10212    348.88076    41.142841    41.142841    82.266115 
  338100    836.98717   -25351.281   -26216.686     98.91001    120.19753    346.07066   -169.53816    41.143156    41.143156    82.274899 
  338200    834.01554    -25351.28   -26213.612    9.4343825    8.5140559   -25.691854    45.480945    41.143522    41.143522    82.289608 
  338300    823.45262   -25351.279   -26202.689    84.874407   -183.33674   -37.772707    475.73266    41.143843    41.143843    82.302599 
  338400    831.87383   -25351.279   -26211.396   -221.85339    57.237867   -157.70191   -565.09613    41.143996    41.143996      82.3247 
  338500    836.37403   -25351.295   -26216.065   -81.191438   -61.797797    22.094786    -203.8713    41.144043    41.144043    82.291791 
  338600    838.62613   -25351.304   -26218.403    305.58466    267.98744    682.07536   -33.308841    41.144103    41.144103     82.23966 
  338700    838.49018   -25351.294   -26218.253    605.77118    537.96135    391.76165    887.59055    41.144458    41.144458    82.204624 
  338800    832.63092   -25351.307   -26212.207    400.68053    233.92966    816.71457    151.39737    41.145114    41.145114    82.242925 
  338900    844.64812   -25351.301   -26224.627   -388.96194   -385.17956   -111.18416   -670.52211    41.145935    41.145935    82.286899 
  339000    833.65011     -25351.3   -26213.254    -107.5314    33.382384   -148.78807    -207.1885    41.146621    41.146621    82.294278 
  339100    833.81506   -25351.302   -26213.427   -170.90904    101.60881   -269.20172    -345.1342     41.14712     41.14712    82.294639 
  339200    845.10209   -25351.301   -26225.096   -263.51218   -235.01563   -433.96747   -121.55345    41.147485    41.147485    82.277127 
  339300    831.07902   -25351.299   -26210.595    239.52219   -18.865956    666.54353    70.889005    41.147681    41.147681    82.257563 
  339400     838.5417   -25351.301   -26218.313    76.242095    343.82413   -333.42292    218.32508    41.147937    41.147937    82.249715 
  339500    845.34433    -25351.31   -26225.355   -325.71079   -718.46808   -223.42236   -35.241926    41.148246    41.148246    82.283843 
  339600     838.7492    -25351.31   -26218.536   -518.04613   -428.82299   -629.83351    -495.4819    41.148392    41.148392    82.328396 
  339700    837.00869    -25351.31   -26216.737   -469.47864   -251.50971   -688.61406   -468.31215    41.148265    41.148265    82.329218 
  339800    834.09866   -25351.305   -26213.723   -183.68688   -629.30471    37.996262    40.247796    41.147825    41.147825    82.296679 
  339900      834.607   -25351.309   -26214.252   -10.995705    -754.4687    419.33502    302.14656    41.147266    41.147266    82.273187 
  340000    836.71555   -25351.305   -26216.429  -0.66377724   -21.812131   -486.57527    506.39607    41.146782    41.146782    82.267807 
  340100    845.31936   -25351.314   -26225.333   -311.17098   -188.07937   -405.35785   -340.07572    41.146314    41.146314    82.285602 
  340200    831.36586   -25351.308   -26210.901    65.228118   -222.94049  -0.80826194     419.4331    41.145846    41.145846    82.297064 
  340300    844.10817   -25351.315   -26224.082   -378.25839   -130.69546   -420.48298   -583.59675    41.145347    41.145347     82.31118 
  340400    835.17683   -25351.308   -26214.841   -31.103291    703.44136   -805.78815    9.0369239    41.144811    41.144811    82.298502 
  340500    837.48801   -25351.311   -26217.233   -80.231922    148.23384   -599.94197    211.01236    41.144257    41.144257    82.288316 
  340600    838.35605   -25351.311   -26218.131   -103.20052    29.791582    -217.2092   -122.18395    41.143663    41.143663    82.296253 
  340700    845.38717   -25351.316   -26225.406   -424.21817   -346.37108   -489.94641   -436.33701    41.143079    41.143079    82.307432 
  340800    837.99226   -25351.311   -26217.755   -159.80839   -429.52015   -39.166479   -10.738537    41.142528    41.142528    82.312231 
  340900    832.58503   -25351.314   -26212.166   -33.218913    268.65746   -748.96821    380.65401    41.141967    41.141967     82.31084 
  341000    827.87216   -25351.318   -26207.298   -102.80668   -55.600948   -317.08701    64.267905    41.141405    41.141405    82.329221 
  341100     828.8008   -25351.314   -26208.255    -174.4292   -204.95749   -137.05138   -181.27874    41.140733    41.140733    82.341606 
  341200    835.29947   -25351.329   -26214.988    15.696506   -98.578768     112.9702    32.698085    41.140027    41.140027    82.299921 
  341300    840.46986   -25351.324    -26220.33     186.5143    12.157064      523.879    23.506831    41.139441    41.139441    82.260516 
  341400    830.09872   -25351.319   -26209.601    692.30749    669.48545    508.00718    899.42984    41.139095    41.139095     82.24666 
  341500    834.43985   -25351.322   -26214.093    144.50387    3.9760079    435.20452   -5.6689138    41.139015    41.139015    82.286389 
  341600    831.06301   -25351.323   -26210.602    -26.42723    64.621663    18.600891   -162.50424    41.139046    41.139046    82.315298 
  341700    835.47789   -25351.322   -26215.165   -169.14016   -489.00921   -93.863108    75.451841    41.139042    41.139042    82.326933 
  341800    827.11538   -25351.316   -26206.514    106.43097   -313.76798    726.55981   -93.498928    41.138892    41.138892    82.322667 
  341900    845.42742    -25351.33   -26225.461   -233.66997    184.75142   -70.913825   -814.84752    41.138755    41.138755    82.298782 
  342000    834.41625   -25351.332   -26214.078    479.80543     380.0153    501.15072    558.25028    41.138746    41.138746    82.252007 
  342100    828.64706   -25351.333   -26208.114    622.52534    561.04545    319.18683    987.34373    41.138976    41.138976    82.260753 
  342200    837.79696   -25351.352   -26217.594   -163.96247   -302.79122   -296.20014    107.10396    41.139313    41.139313    82.326891 
  342300    837.44416   -25351.344   -26217.221   -617.10797   -783.51054   -487.33627    -580.4771    41.139554    41.139554    82.389596 
  342400    836.21197    -25351.34   -26215.943   -660.81214   -578.09102   -915.19203   -489.15338    41.139427    41.139427    82.396544 
  342500    825.51524   -25351.371   -26204.914    68.311375     225.3387    42.966626   -63.371204    41.138939    41.138939    82.333997 
  342600    840.36106   -25351.367    -26220.26    461.90607    60.573097    55.159996    1269.9851    41.138511    41.138511      82.2466 
  342700    828.56309   -25351.354   -26208.048    712.69789    737.23135    666.53512    734.32719    41.138339    41.138339     82.23957 
  342800    840.71489   -25351.367   -26220.625   -63.431519   -503.21348    565.33097   -252.41205    41.138509    41.138509    82.292862 
  342900    831.01717   -25351.368     -26210.6   -199.88107   -375.74334    297.88637   -521.78622    41.138687    41.138687    82.343682 
  343000    831.24409   -25351.361   -26210.827   -248.47524   -473.76896   -350.08433    78.427577    41.138702    41.138702    82.346667 
  343100    831.36804   -25351.361   -26210.955    62.782981   -685.98381    560.78964    313.54311    41.138475    41.138475     82.32181 
  343200     838.1716   -25351.364   -26217.994   -98.805988    -479.7207    102.35566    80.947076    41.138188    41.138188    82.319398 
  343300    830.43621   -25351.364   -26209.995    29.219734   -193.10308    263.24346    17.518827     41.13784     41.13784    82.321504 
  343400    841.92976   -25351.371   -26221.886   -95.537012   -450.35605    442.46107   -278.71606    41.137584    41.137584    82.301684 
  343500    839.05383   -25351.367   -26218.908    345.41031    164.07151    549.97654     322.1829     41.13748     41.13748    82.268249 
  343600    838.16285   -25351.368   -26217.988    222.50395    79.034927    553.41423    35.062681    41.137569    41.137569    82.275339 
  343700    823.71113   -25351.397   -26203.074    190.09277   -108.96732    348.10649    331.13913    41.137775    41.137775    82.330676 
  343800    833.02553    -25351.37   -26212.679   -539.31278   -1028.2995    42.409659   -632.04852     41.13788     41.13788    82.385201 
  343900     832.5988   -25351.385   -26212.252   -333.25325    91.133859   -374.87101   -716.02259     41.13763     41.13763    82.364845 
  344000    829.42785   -25351.387   -26208.975    194.34984   -309.45145    491.63894    400.86203      41.1372      41.1372    82.305039 
  344100    843.70156   -25351.381   -26223.728    6.4711919   -431.67249    133.47289    317.61318    41.136816    41.136816    82.280068 
  344200    831.38014    -25351.38   -26210.987    309.24352    197.28345    400.78963    329.65748    41.136549    41.136549    82.282524 
  344300    836.18915   -25351.382   -26215.961    49.425838   -4.3097105    131.39395    21.193279    41.136467    41.136467    82.303781 
  344400    828.49453   -25351.379   -26208.003    27.275347   -44.387302    241.05569   -114.84234    41.136458    41.136458     82.32166 
  344500    828.41355   -25351.379   -26207.919    151.96904    104.85142    166.09716    184.95854    41.136446    41.136446    82.315864 
  344600    838.11202   -25351.386   -26217.953   -98.874079    340.87844   -193.51436   -443.98632     41.13641     41.13641    82.312033 
  344700    838.17866   -25351.384   -26218.021     172.8861   -3.8154556     150.5418    371.93194     41.13644     41.13644    82.291771 
  344800    847.97989   -25351.389   -26228.159   -131.04295   -198.16594    33.835922   -228.79884    41.136544    41.136544    82.289566 
  344900    831.84084   -25351.386    -26211.47    69.847125    525.18565   -238.85648   -76.787792    41.136725    41.136725    82.315146 
  345000    835.50295   -25351.386   -26215.255   -190.61337   -163.38371   -25.278218   -383.17818    41.136897    41.136897    82.340963 
  345100    832.26541    -25351.38   -26211.903   -190.06711   -271.55269   -2.6352267   -296.01341    41.136936    41.136936    82.336985 
  345200    835.10491   -25351.387   -26214.846   -15.787061    68.212418    74.161448   -189.73505     41.13688     41.13688    82.312078 
  345300    843.00879   -25351.392   -26223.023    181.94596     114.5186    220.34364    210.97564    41.136859    41.136859    82.278081 
  345400    834.27694   -25351.387   -26213.989    377.33243    218.32907    452.66237    461.00586    41.136958    41.136958    82.269206 
  345500    837.75802   -25351.402   -26217.604    12.481466    59.810891   -255.26817    232.90168    41.137251    41.137251    82.301019 
  345600    839.08434   -25351.392   -26218.965   -397.83356   -874.65653   -170.09717   -148.74698    41.137504    41.137504    82.345968 
  345700     831.5475   -25351.395   -26211.175   -292.81337   -392.54729    -252.3361   -233.55671    41.137515    41.137515    82.354481 
  345800    845.68251   -25351.393   -26225.788   -508.51031   -578.86992   -607.83859   -338.82242    41.137338    41.137338    82.343579 
  345900    830.26426   -25351.395   -26209.848    220.49291    264.01182    190.13172    207.33517    41.137022    41.137022    82.311728 
  346000    838.15076   -25351.411   -26218.019    338.14091    870.06245    566.48276   -422.12248    41.136839    41.136839     82.27284 
  346100    843.07381     -25351.4   -26223.097    449.32073    411.24758    264.41761    672.29699    41.136996    41.136996    82.242743 
  346200    836.59011   -25351.467   -26216.461    30.276963    256.37898   -538.88254    373.33445    41.137343    41.137343    82.312139 
  346300    835.94596   -25351.434   -26215.761   -871.31878   -644.87408   -1221.4837   -747.59858     41.13754     41.13754    82.413612 
  346400     827.3465   -25351.444    -26206.88   -586.28005   -794.98927   -88.273101    -875.5778     41.13729     41.13729    82.411741 
  346500    834.81358   -25351.488   -26214.645    110.09058   -257.57481    494.41943     93.42712    41.136738    41.136738    82.304792 
  346600    827.46106   -25351.447   -26207.002    861.34912    500.74485    883.43546    1199.8671    41.136268    41.136268    82.226371 
  346700    835.94974   -25351.467   -26215.798     465.2628    479.20186    645.55114     271.0354    41.136142    41.136142    82.254802 
  346800    842.81401   -25351.481    -26222.91   -336.05997   -483.07982   -450.04577   -75.054322    41.136235    41.136235    82.330342 
  346900     839.0738   -25351.462   -26219.024   -637.19899   -1063.5374    81.766763   -929.82634     41.13619     41.13619    82.382889 
  347000    839.67226   -25351.472   -26219.652   -557.18491   -465.59761   -447.20458   -758.75253    41.135892    41.135892     82.36469 
  347100    839.87415   -25351.471   -26219.861   -81.321149   -300.62544    123.10857   -66.446576    41.135408    41.135408    82.314759 
  347200    841.05775    -25351.47   -26221.083    164.04552    191.59962    166.84822    133.68873    41.134978    41.134978    82.286898 
  347300    829.79702    -25351.47    -26209.44    345.23038    507.03824    442.37945     86.27347    41.134717    41.134717    82.293064 
  347400    838.23922    -25351.47   -26218.169    34.143558   -426.41104     262.9598    265.88191    41.134657    41.134657    82.314131 
  347500    825.29586   -25351.469   -26204.785    106.72109    29.277835     317.2849   -26.399463    41.134612    41.134612    82.341054 
  347600    839.80685   -25351.469   -26219.789   -389.20114   -152.76935   -443.44054   -571.39354    41.134543    41.134543    82.358777 
  347700    832.78307   -25351.477   -26212.534    25.669959    306.07456     -234.303    5.2383254    41.134389    41.134389    82.331717 
  347800    842.29417   -25351.482   -26222.374    20.866262    168.00448   -49.538467   -55.867224    41.134322    41.134322    82.292146 
  347900    844.49937   -25351.479   -26224.651     317.3252    298.25239    359.65741    294.06579    41.134413    41.134413     82.26562 
  348000    831.01561   -25351.475   -26210.705    554.06414    764.10454    689.16198    208.92591    41.134776    41.134776    82.277327 
  348100     836.1909   -25351.479    -26216.06    127.74473    231.83782   -148.50012    299.89649    41.135426    41.135426       82.293 
  348200     848.2794   -25351.483   -26228.563   -303.78985   -488.68362   -286.46918   -136.21676    41.136149    41.136149    82.316088 
  348300    838.96861   -25351.481   -26218.934   -424.67687    131.78554   -595.75482   -810.06134    41.136719    41.136719    82.353365 
  348400     832.5527   -25351.484   -26212.304   -367.53152   -770.84777   -531.86565    200.11886    41.136994    41.136994    82.372409 
  348500    831.61613   -25351.483   -26211.334   -450.08616   -127.13666   -1125.4524   -97.669429    41.136864    41.136864     82.37679 
  348600    842.56245   -25351.486   -26222.655   -519.13602   -946.37331   -160.64151   -450.39324    41.136402    41.136402    82.358146 
  348700    837.07731   -25351.484   -26216.981   -64.797859   -344.82767   -154.83499    305.26909    41.135769    41.135769    82.326422 
  348800    839.92986   -25351.484   -26219.931   -69.966069    -384.9493    148.44799      26.6031    41.135109    41.135109    82.318102 
  348900    836.77391   -25351.498   -26216.682   -141.14703    -312.6121    290.78336   -401.61234    41.134475    41.134475    82.341086 
  349000    841.00718    -25351.49    -26221.05   -281.52165   -401.28438   -442.90623  -0.37434983    41.133916    41.133916     82.35705 
  349100    834.04192   -25351.489   -26213.849   -196.93167     37.57212    31.700815   -660.06793     41.13332     41.13332    82.360095 
  349200    830.86261   -25351.488    -26210.56    132.21477    371.46786   -46.632899    71.809337    41.132724    41.132724    82.332707 
  349300    836.84263   -25351.487   -26216.742    180.56338    612.41154   -410.59115    339.86974    41.132201    41.132201    82.317254 
  349400    831.08922    -25351.49   -26210.796    151.00061    349.44217   -49.132446     152.6921    41.131744    41.131744    82.324646 
  349500    844.19507    -25351.49   -26224.347   -327.35299   -53.609813   -497.16536    -431.2838    41.131443    41.131443     82.34733 
  349600    837.31978   -25351.489   -26217.237   -137.74777   -24.959303   -93.570189    -294.7138    41.131134    41.131134    82.340824 
  349700    833.34305   -25351.487   -26213.123    72.992816    462.04719    -582.3107    339.24195    41.130799    41.130799    82.325969 
  349800    817.39477   -25351.483    -26196.63    399.70568    77.138651    819.15824    302.82015    41.130456    41.130456    82.332436 
  349900    839.40099    -25351.49    -26219.39    -176.3477   -1.7688667   -509.38436    -17.88986    41.130212    41.130212    82.344186 
  350000    839.40127   -25351.493   -26219.394   -183.17491   -102.05414     27.30542     -474.776    41.129957    41.129957     82.34295 
Loop time of 5883.25 on 1 procs for 200000 steps with 8000 atoms

Pair  time (%) = 5333.33 (90.6528)
Neigh time (%) = 395.215 (6.71763)
Comm  time (%) = 31.9572 (0.54319)
Outpt time (%) = 2.48021 (0.0421572)
Other time (%) = 120.269 (2.04425)

Nlocal:    8000 ave 8000 max 8000 min
Histogram: 1 0 0 0 0 0 0 0 0 0
Nghost:    8682 ave 8682 max 8682 min
Histogram: 1 0 0 0 0 0 0 0 0 0
Neighs:    299172 ave 299172 max 299172 min
Histogram: 1 0 0 0 0 0 0 0 0 0

Total # of neighbors = 299172
Ave neighs/atom = 37.3965
Neighbor list builds = 20000
Dangerous builds = 0
unfix		4
