LAMMPS (13 Jan 2014)
dimension       3
boundary        p p p
units           metal

atom_style	atomic
neighbor	0.3 bin
neigh_modify	every 10 delay 0 check no

# Number of steps for the equilibration steps
variable        eqsteps equal 50000

# Number of steps to run our NPH simulation
variable        simsteps equal 200000

# Our trial melting temperature
variable	T equal 1075.0
variable	T2 equal 2*${T}
variable	T2 equal 2*1075

# Some high temperature to melt the crystal
variable	Tmelt equal 2000.0

#System size
variable	nx equal 10
variable	ny equal 10
variable	nz equal 20
variable	nzhalf equal ${nz}*0.5
variable	nzhalf equal 20*0.5
variable	a equal 4.050
variable	length equal ${nz}*${a}
variable	length equal 20*${a}
variable	length equal 20*4.05

lattice		fcc ${a}
lattice		fcc 4.05
Lattice spacing in x,y,z = 4.05 4.05 4.05

region         box block 0 ${nx} 0 ${ny} 0 ${nz}
region         box block 0 10 0 ${ny} 0 ${nz}
region         box block 0 10 0 10 0 ${nz}
region         box block 0 10 0 10 0 20
create_box     1 box
Created orthogonal box = (0 0 0) to (40.5 40.5 81)
  1 by 1 by 1 MPI processor grid
create_atoms   1 box
Created 8000 atoms

mass		1 26.9815

pair_style	eam/alloy
pair_coeff	* * Al_potential.alloy Al

velocity	all create ${T2} 1337
velocity	all create 2150 1337

# Create a dump file. This can be visualized with
# e.g. OVITO (http://www.ovito.org/)
dump		id all atom 1000 atomsdump

# 1 fs timestep
timestep	0.001
thermo_style	custom step temp etotal pe press pxx pyy pzz lx ly lz

# output every 100th timestep
thermo		100

# Equilibration the whole system to the trial melting temperature
fix		1 all npt temp ${T} ${T} 1 iso 0 0 3 drag 1.0
fix		1 all npt temp 1075 ${T} 1 iso 0 0 3 drag 1.0
fix		1 all npt temp 1075 1075 1 iso 0 0 3 drag 1.0
run		${eqsteps}
run		50000
Memory usage per processor = 5.95314 Mbytes
Step Temp TotEng PotEng Press Pxx Pyy Pzz Lx Ly Lz 
       0         2150   -24954.255   -27177.252    13807.837    13645.426    13628.626    14149.458         40.5         40.5           81 
     100     1021.472   -24977.518   -26033.671    35383.353    35723.456    35490.812     34935.79    40.590478    40.590478    81.180956 
     200    1014.4841     -25014.9   -26063.828    23070.603      23822.1    23003.399    22386.311    40.807451    40.807451    81.614902 
     300     997.6749   -25033.896   -26065.444    13635.034    13738.289    13299.628    13867.185    40.988443    40.988443    81.976886 
     400    989.13985   -25039.792   -26062.515    7154.8444    7251.4371    7215.6489    6997.4471    41.120639    41.120639    82.241278 
     500    970.50742   -25039.244   -26042.702    2499.9609    2579.4824    2420.8928    2499.5075     41.22478     41.22478     82.44956 
     600    957.94305   -25035.317   -26025.785   -616.04052   -338.93969   -511.78364   -997.39822    41.300353    41.300353    82.600706 
     700    958.34718    -25030.09   -26020.975   -2799.7299     -3212.54   -2479.7946   -2706.8549    41.346264    41.346264    82.692529 
     800     969.4162   -25025.052   -26027.382    -3733.038   -3628.7373   -3852.5425   -3717.8343    41.365483    41.365483    82.730967 
     900    952.07269   -25020.703     -26005.1    -3195.896   -3116.6168   -3280.2236   -3190.8476    41.362586    41.362586    82.725173 
    1000    975.73919   -25016.706   -26025.574   -2641.1879   -2558.6798   -2540.0981   -2824.7859     41.34511     41.34511     82.69022 
    1100    972.69755   -25012.766   -26018.489   -1298.2324   -1465.2017   -583.47159   -1846.0238    41.320329    41.320329    82.640657 
    1200    973.36694   -25008.746    -26015.16    66.098354    565.11031    432.71189   -799.52714    41.294752    41.294752    82.589504 
    1300    976.62123   -25004.605   -26014.384    1070.1692    1182.5264    1247.7918    780.18947    41.274151    41.274151    82.548301 
    1400    974.96477   -25000.438   -26008.504    1839.7524    2057.4361    1898.4113    1563.4099    41.262014    41.262014    82.524028 
    1500    982.60452   -24996.321   -26012.287    1885.7087    1534.3183    2086.6331    2036.1746    41.259864    41.259864    82.519728 
    1600    999.06211   -24992.293   -26025.275    1342.5622    1561.8934    1069.0609    1396.7324    41.266547    41.266547    82.533093 
    1700    967.39489   -24988.393   -25988.633    1598.0234    1669.0998    1701.6471    1423.3233    41.279278    41.279278    82.558555 
    1800    994.92924   -24984.437   -26013.146    199.35638    -229.8273    568.93822    258.95821    41.295311    41.295311    82.590622 
    1900    990.79323   -24980.433   -26004.865   -235.72779   -406.03769   -24.384108   -276.76156    41.310869    41.310869    82.621738 
    2000    984.17375   -24976.354   -25993.942   -515.97451   -932.78424    -128.1383   -487.00099    41.322979    41.322979    82.645957 
    2100     990.5819   -24972.315   -25996.529   -851.51705   -1071.3149   -335.76745   -1147.4688    41.330177    41.330177    82.660354 
    2200    996.83312   -24968.293    -25998.97   -947.12559   -1128.2113   -1323.4197   -389.74582    41.332264    41.332264    82.664528 
    2300    989.20435   -24964.358   -25987.148   -518.66402   -618.23215   -332.83947   -604.92043    41.329513    41.329513    82.659026 
    2400    1000.4526    -24960.45    -25994.87   -445.40484   -410.56991   -457.44141   -468.20321    41.323984    41.323984    82.647967 
    2500    995.86671   -24956.571   -25986.249    111.95233    146.18156   -272.99238    462.66781    41.317393    41.317393    82.634786 
    2600    1004.6226   -24952.782   -25991.514    281.47319    228.37356    319.16052    296.88548    41.311654    41.311654    82.623307 
    2700    1001.3019   -24949.072    -25984.37    678.11149    391.33658    811.12886    831.86904    41.308143    41.308143    82.616287 
    2800     1008.704   -24945.462   -25988.413     587.4347    407.25715    1043.4809    311.56604    41.307613    41.307613    82.615227 
    2900    1007.2724   -24941.927   -25983.399    561.13196    387.16729    315.63582    980.59276    41.310289    41.310289    82.620579 
    3000    1003.0456   -24938.405   -25975.506    509.72771    239.32229    672.85314    617.00769    41.315841    41.315841    82.631682 
    3100    1015.2408   -24934.917   -25984.627    49.423398   -48.619607   -203.38096    400.27076    41.322852    41.322852    82.645703 
    3200    1008.9406   -24931.476   -25974.672    32.233888   -18.983378   -18.202367    133.88741    41.330006    41.330006    82.660012 
    3300    1000.2219   -24928.015   -25962.197   -91.142758   -348.03623   -196.39368    271.00164    41.336339    41.336339    82.672678 
    3400     1008.874   -24924.545   -25967.672   -394.21144   -271.23107   -200.58761   -710.81563    41.341055    41.341055     82.68211 
    3500    1011.2048   -24921.057   -25966.594   -483.73405   -485.18896   -361.83295   -604.18024    41.343636    41.343636    82.687272 
    3600    1014.7513   -24917.616    -25966.82   -550.34052   -977.30281   -510.29743   -163.42133    41.343574    41.343574    82.687147 
    3700    1006.4251    -24914.28   -25954.875    58.848549    667.98244   -403.16415   -88.272645    41.341006    41.341006    82.682012 
    3800    1019.0539   -24910.956   -25964.609   -60.937053     289.0017   -729.70985      257.897    41.337747    41.337747    82.675494 
    3900     1022.548   -24907.696   -25964.961    164.15256    160.02958      7.03803    325.39006    41.334758    41.334758    82.669516 
    4000     1027.149   -24904.494   -25966.517    45.608035   -104.13729    33.030694     207.9307    41.333128    41.333128    82.666257 
    4100    1033.4367   -24901.323   -25969.847    119.27345    486.30111    20.541813   -149.02258    41.333294    41.333294    82.666589 
    4200    1017.4796    -24898.22   -25950.245    533.90363    223.68332    747.01899    631.00857    41.335417    41.335417    82.670834 
    4300    1023.6103   -24895.149   -25953.513    174.53192    577.77645   -102.50447    48.323789    41.339589    41.339589    82.679178 
    4400    1023.9523   -24892.122   -25950.839    7.2780524   -114.52528   0.45615568    135.90328    41.344806    41.344806    82.689612 
    4500     1020.359   -24889.115   -25944.117    52.222378   -121.86349     56.78651    221.74412    41.350065    41.350065     82.70013 
    4600     1028.977   -24886.111   -25950.023   -319.01702   -1115.8323    372.39774   -213.61654    41.354539    41.354539    82.709077 
    4700    1026.2097   -24883.177   -25944.228   -328.23693   -412.63372   -172.89362   -399.18346    41.357352    41.357352    82.714705 
    4800    1020.4565   -24880.262   -25935.365  -0.59733451    764.08327   -501.31438    -264.5609    41.358377    41.358377    82.716754 
    4900    1031.6621   -24877.432   -25944.121   -221.60694   -262.43544   -593.78293    191.39756    41.357849    41.357849    82.715698 
    5000    1023.5417   -24874.642   -25932.935   -2.3734637    288.71919   -323.40161    27.562029    41.356384    41.356384    82.712767 
    5100    1022.2191   -24871.839   -25928.764    174.97265    318.46451   -291.80994    498.26336    41.354937    41.354937    82.709873 
    5200     1029.643   -24869.001   -25933.602    282.16804   -580.56106     608.0523    819.01289    41.354397    41.354397    82.708794 
    5300    1046.0506   -24866.275   -25947.841   -125.58648    461.16121   -276.06042   -561.86022    41.354056    41.354056    82.708111 
    5400    1032.3023   -24863.647   -25930.998    308.71273    15.957072     563.7065    346.47463    41.354476    41.354476    82.708951 
    5500    1034.3972    -24861.04   -25930.557    285.26022    352.15172    243.23681    260.39214    41.356375    41.356375     82.71275 
    5600    1039.5682   -24858.505   -25933.369    191.58774    328.55194     18.40607     227.8052    41.358853    41.358853    82.717706 
    5700    1034.7658   -24856.067   -25925.966    216.56575    506.52823    356.71011    -213.5411    41.361597    41.361597    82.723195 
    5800    1037.9228   -24853.638   -25926.801    -39.08364    -776.3239    791.18993   -132.11695    41.364559    41.364559    82.729118 
    5900     1039.328   -24851.287   -25925.902     -9.48221    214.16946    488.50463   -731.12072    41.366503    41.366503    82.733006 
    6000     1039.445   -24848.964     -25923.7   -28.889543     26.49934   -378.26969    265.10172    41.367659    41.367659    82.735318 
    6100    1043.1137   -24846.668   -25925.198   -9.5812613    -112.3427    108.55145   -24.952531    41.368251    41.368251    82.736503 
    6200    1044.9692   -24844.389   -25924.836   -81.431547    333.95234   -578.39775   0.15076254    41.368686    41.368686    82.737372 
    6300    1039.4782    -24842.15   -25916.921    159.84649    769.00322   -334.82954    45.365777    41.368626    41.368626    82.737252 
    6400    1051.4267   -24839.885   -25927.009   -29.721819   -42.197034   -231.07926    184.11084    41.368987    41.368987    82.737975 
    6500    1044.7027   -24837.681   -25917.853    83.376586    429.87577   -40.657514    -139.0885     41.36943     41.36943     82.73886 
    6600    1038.6778   -24835.498   -25909.441    311.15935    322.69154    635.93807   -25.151551    41.370339    41.370339    82.740679 
    6700     1056.579   -24833.287   -25925.739   -185.54093    261.99134    127.49442   -946.10855     41.37202     41.37202     82.74404 
    6800    1058.6984   -24831.157     -25925.8   -276.27028    102.46366   -766.16638   -165.10812    41.373717    41.373717    82.747433 
    6900    1048.5597   -24829.123   -25913.283    135.59691   -397.99389    725.11051     79.67411    41.375157    41.375157    82.750314 
    7000    1048.8013   -24827.141   -25911.551   -59.740783    46.990797    275.44736   -501.66051    41.376814    41.376814    82.753628 
    7100    1051.8551   -24825.143    -25912.71   -193.76224    104.63659   -595.64785   -90.275462    41.378497    41.378497    82.756994 
    7200    1053.2623   -24823.211   -25912.233   -16.002546   -427.04546    431.15852   -52.120702    41.379353    41.379353    82.758706 
    7300    1053.1209    -24821.33   -25910.207   -75.089714    74.779841   -180.21808    -119.8309    41.379603    41.379603    82.759205 
    7400    1046.4532   -24819.442   -25901.425    255.26355    303.19812    198.42715    264.16539    41.379823    41.379823    82.759645 
    7500    1057.7751   -24817.526   -25911.215   -150.44796   -285.31031   -215.07526    49.041688     41.38047     41.38047     82.76094 
    7600    1048.6462    -24815.69    -25899.94    244.71601    261.16694    271.77361    201.20747    41.380696    41.380696    82.761393 
    7700     1056.803   -24813.923   -25906.606   -11.680867    355.42884    158.69323   -549.16467    41.380951    41.380951    82.761901 
    7800    1061.3467    -24812.17   -25909.552   -89.609324   -46.223001   -34.834122   -187.77085    41.381726    41.381726    82.763453 
    7900    1058.8376   -24810.492   -25905.279   -45.265085   -94.923156   -182.23152    141.35942    41.382562    41.382562    82.765124 
    8000     1059.381    -24808.81   -25904.159   -11.625388    265.91584    145.78839   -446.58039    41.383751    41.383751    82.767503 
    8100    1069.2151   -24807.183     -25912.7    -265.0312   -133.40128   -316.68235   -345.00999    41.384818    41.384818    82.769637 
    8200    1051.1811   -24805.658   -25892.529    251.14158   -1003.4899    1421.9605    334.95413    41.385391    41.385391    82.770781 
    8300    1054.2575   -24804.158    -25894.21    78.922194   -273.93638    222.85892    287.84404    41.386084    41.386084    82.772168 
    8400    1058.1534   -24802.708   -25896.788    170.45187    105.60208    525.99785   -120.24432    41.386514    41.386514    82.773027 
    8500    1057.6172   -24801.346   -25894.871    203.88287     402.8259    424.94191    -216.1192    41.386914    41.386914    82.773828 
    8600    1065.7794    -24799.94   -25901.905    23.629699     -157.829   -89.313335    318.03143    41.388233    41.388233    82.776467 
    8700    1058.9165   -24798.563   -25893.432    17.068913    -134.3929    528.04916   -342.44952    41.389647    41.389647    82.779294 
    8800    1072.5823   -24797.152    -25906.15   -419.10484   -491.86371    5.6784079   -771.12921    41.391198    41.391198    82.782395 
    8900    1060.0456   -24795.792   -25891.828   -17.691613   -231.03876    -198.8666    376.83052    41.391732    41.391732    82.783465 
    9000    1054.5713   -24794.443   -25884.819     4.671852    143.45151   -74.265322   -55.170636    41.391779    41.391779    82.783557 
    9100    1055.4616   -24793.171   -25884.468    180.06051    243.54043    75.341028    221.30008    41.391226    41.391226    82.782451 
    9200    1073.7149   -24791.865   -25902.034   -196.94858    3.1784945    16.567474    -610.5917    41.391047    41.391047    82.782094 
    9300    1060.6819   -24790.689   -25887.383    299.23603    1112.9486    -140.8209   -74.419615    41.390462    41.390462    82.780924 
    9400    1051.6956   -24789.524   -25876.926    554.02234    586.09414    274.83581    801.13708    41.390798    41.390798    82.781596 
    9500    1064.6828   -24788.273   -25889.104    12.217143    878.97958   -372.50758   -469.82058    41.392694    41.392694    82.785389 
    9600    1076.2883   -24787.031   -25899.861   -170.09457    162.10783   -124.56491   -547.82662    41.394837    41.394837    82.789674 
    9700    1058.4042   -24785.835   -25880.174    127.56384    257.52179   -164.47166     289.6414    41.396861    41.396861    82.793722 
    9800     1069.089   -24784.618   -25890.005    -208.9611   -66.399586    19.288888    -579.7726    41.398646    41.398646    82.797291 
    9900    1075.1137   -24783.445   -25895.061   -344.25065   -28.329631   -759.93138   -244.49094    41.399363    41.399363    82.798726 
   10000    1075.6962   -24782.362    -25894.58   -364.06921    250.91544   -428.50741   -914.61565    41.398813    41.398813    82.797627 
   10100    1065.7192    -24781.32   -25883.222   -23.178347    55.278032   -284.74477     159.9317    41.397556    41.397556    82.795112 
   10200    1072.9104   -24780.246   -25889.584   -129.78433    564.13341   -504.07178   -449.41462    41.396463    41.396463    82.792927 
   10300    1077.8035    -24779.22   -25893.617   -92.867103    271.89042     56.21746   -606.70918    41.395323    41.395323    82.790645 
   10400    1068.1104   -24778.262   -25882.637    158.71238    286.46348    -472.8355    662.50917    41.394687    41.394687    82.789373 
   10500    1073.0329   -24777.277   -25886.742   -68.532534    116.57721    -328.2752    6.1003898    41.395182    41.395182    82.790364 
   10600    1066.1056   -24776.334   -25878.636    357.19844     798.2414    335.20344   -61.849519    41.396395    41.396395    82.792791 
   10700    1066.8155    -24775.52   -25878.556    201.24783    344.87005    63.615422    195.25801    41.398015    41.398015     82.79603 
   10800     1075.278   -24774.662   -25886.448   -211.11517   -344.79416     -277.088   -11.463336    41.400257    41.400257    82.800514 
   10900    1074.2796   -24773.773   -25884.527   -74.966892   -34.278377   -120.19668   -70.425615    41.402331    41.402331    82.804662 
   11000    1060.2062   -24772.937   -25869.139    92.008883    138.84788   -79.244098    216.42286    41.403775    41.403775    82.807549 
   11100    1071.3053   -24772.164   -25879.842   -99.503408   -498.02763   -38.007477    237.52488    41.404376    41.404376    82.808751 
   11200     1072.005   -24771.465   -25879.866     -107.748   -1080.8903    19.535913    738.11038    41.404128    41.404128    82.808257 
   11300    1070.9548   -24770.829   -25878.145    -27.34913   -373.44013   -82.309004    373.70175    41.403396    41.403396    82.806792 
   11400    1069.5715   -24770.227   -25876.113    90.769464   -230.98485   -4.0087949    507.30204    41.402282    41.402282    82.804564 
   11500    1057.8114   -24769.666   -25863.392    438.92914     318.0158    967.30633    31.465295    41.401275    41.401275    82.802549 
   11600     1067.903   -24769.137   -25873.297    161.99908    351.07249    199.93597   -65.011231    41.400916    41.400916    82.801832 
   11700    1056.7348   -24768.591   -25861.204    377.38798    34.426281    728.87484    368.86282    41.401152    41.401152    82.802304 
   11800    1075.4696   -24768.043   -25880.027     68.76769   -10.865526    8.4081214    208.76048    41.401746    41.401746    82.803491 
   11900    1073.5175   -24767.553   -25877.519    91.096625    454.79585   -437.85023    256.34425    41.402602    41.402602    82.805204 
   12000    1070.3251   -24767.085    -25873.75    68.560443    188.24676    6.2426315    11.191943    41.403716    41.403716    82.807431 
   12100    1073.5158   -24766.676    -25876.64   -78.624766   -224.92475   -98.341842     87.39229    41.404706    41.404706    82.809412 
   12200    1062.0118    -24766.29   -25864.359    273.01975     387.1973    280.28433    151.57762    41.405559    41.405559    82.811118 
   12300    1071.5806   -24765.868   -25873.831    53.389231    373.83833   -47.835585   -165.83505    41.406453    41.406453    82.812907 
   12400    1055.8899   -24765.541    -25857.28    387.62931   -26.112126     739.6534    449.34665    41.406454    41.406454    82.812907 
   12500    1076.9184   -24765.182   -25878.663   -140.02496   -432.36094    266.87341   -254.58735    41.406391    41.406391    82.812782 
   12600    1076.9638   -24764.869   -25878.397   -28.101925    369.52886    214.85498   -668.68962    41.405921    41.405921    82.811842 
   12700    1071.2727   -24764.611   -25872.255    78.216225    718.90629   -413.65819   -70.599426    41.405319    41.405319    82.810638 
   12800    1075.9341   -24764.343   -25876.807   -55.036288    142.14778     61.42362   -368.68026     41.40517     41.40517    82.810339 
   12900    1084.4664   -24764.122   -25885.408   -200.87191   -180.74575   -551.16754    129.29756    41.404916    41.404916    82.809832 
   13000    1066.5732   -24763.931   -25866.717    318.23394    85.732708    606.26576    262.70336    41.404889    41.404889    82.809778 
   13100    1076.7823   -24763.714   -25877.055    11.553328   -292.87494    513.05059   -185.51567    41.405539    41.405539    82.811078 
   13200    1068.5455   -24763.505   -25868.329    118.80748    228.03245   -121.08418    249.47417    41.406209    41.406209    82.812418 
   13300    1072.4197   -24763.285   -25872.116    29.333454   -162.55867    251.04322  -0.48419179    41.407047    41.407047    82.814094 
   13400      1077.97   -24763.119   -25877.688   -177.14364   -632.42992   -47.557008    148.55602    41.407349    41.407349    82.814699 
   13500    1074.3952   -24762.955   -25873.828    -62.06966   -196.19269   -366.85583    376.83953    41.407166    41.407166    82.814333 
   13600    1071.6876   -24762.839   -25870.913     79.16637    362.68268   -289.88817     164.7046     41.40623     41.40623    82.812461 
   13700    1071.2877   -24762.715   -25870.375    197.23958    192.71643    66.879016    332.12329    41.405259    41.405259    82.810517 
   13800    1071.4583   -24762.682   -25870.518    75.082394    726.73314   -246.19335   -255.29261    41.403985    41.403985    82.807969 
   13900    1079.2328   -24762.603   -25878.477   -57.191787     257.8461    12.749809   -442.17127     41.40321     41.40321    82.806419 
   14000    1075.5164   -24762.485   -25874.517    92.698114   -992.34178    620.76972     649.6664    41.403012    41.403012    82.806025 
   14100    1086.6862    -24762.44   -25886.022   -181.36759   -229.04076   -88.454448   -226.60757     41.40298     41.40298     82.80596 
   14200    1080.1064   -24762.506   -25879.284   -99.405759    -281.4013   -363.71977    346.90379    41.402837    41.402837    82.805675 
   14300    1077.5961   -24762.621   -25876.804    88.089873   -417.28548   -10.944807     692.4999    41.402801    41.402801    82.805603 
   14400    1086.2633   -24762.653   -25885.797   -172.04453   -266.48564   -490.03944    240.39148    41.404001    41.404001    82.808003 
   14500    1081.9668   -24762.726   -25881.427   -107.31411    796.49413    -774.2074   -344.22906    41.405337    41.405337    82.810674 
   14600    1072.1454   -24762.826   -25871.373    146.32676   -202.91998    503.97948    137.92077    41.406648    41.406648    82.813297 
   14700    1081.3146   -24762.949   -25880.976   -279.22974   -956.03668    166.91102   -48.563562    41.407832    41.407832    82.815665 
   14800    1068.8289   -24763.049   -25868.167   -55.431833    168.36943   -87.355409   -247.30952    41.408467    41.408467    82.816933 
   14900    1069.6069   -24763.082   -25869.004   -86.338274   -497.48271    310.27699   -71.809096    41.408682    41.408682    82.817365 
   15000    1079.5198   -24763.168    -25879.34   -210.55709    579.98576   -268.69855   -942.95848    41.407901    41.407901    82.815802 
   15100    1064.0158   -24763.242   -25863.384    50.359224   -52.267824     61.94912    141.39638     41.40672     41.40672    82.813439 
   15200    1077.2653     -24763.2    -25877.04     62.64427    260.37125    64.737908   -137.17635    41.405668    41.405668    82.811336 
   15300     1064.484   -24763.172   -25863.798    213.97299    580.60161    498.68568   -437.36832    41.404543    41.404543    82.809086 
   15400     1082.646   -24763.092   -25882.496   -188.28175    119.48155   -373.87976   -310.44705    41.404044    41.404044    82.808088 
   15500    1071.8754   -24763.038   -25871.306    2.5099066   -434.66957    138.98305    303.21624    41.403624    41.403624    82.807249 
   15600    1071.5403   -24762.949    -25870.87    120.10028   -87.838498    294.78407    153.35527     41.40368     41.40368     82.80736 
   15700    1074.5599   -24762.819   -25873.862    86.214913    276.61638   -502.75244    484.78081    41.404423    41.404423    82.808846 
   15800    1082.2018   -24762.672   -25881.616   -43.400464   -265.40235   -65.967269    201.16823    41.405441    41.405441    82.810883 
   15900    1063.7474   -24762.635   -25862.499    362.43891    48.507781    620.79664    418.01231    41.405823    41.405823    82.811646 
   16000    1080.1499   -24762.585   -25879.409   -218.48296   -195.82716   -710.54295    250.92121    41.406618    41.406618    82.813236 
   16100    1078.7377   -24762.509   -25877.872   -137.66465    47.153306   -147.58841   -312.55883    41.407507    41.407507    82.815014 
   16200    1070.1955   -24762.537   -25869.068    113.34829    112.89317    122.16312    104.98856    41.407719    41.407719    82.815438 
   16300    1065.0421   -24762.496   -25863.699    219.66352    589.28566   -42.890463    112.59537    41.408194    41.408194    82.816388 
   16400    1084.2376   -24762.526   -25883.575   -283.51766    398.00597   -875.75198   -372.80696    41.407952    41.407952    82.815903 
   16500    1086.4299   -24762.571   -25885.887   -231.39387     -520.153   -509.39853    335.36991    41.407365    41.407365     82.81473 
   16600    1076.0985   -24762.644   -25875.278   -24.214742    483.96246   -281.60015   -275.00654    41.406643    41.406643    82.813287 
   16700    1079.7151   -24762.651   -25879.025    -43.24521   -715.40601    692.29056   -106.62018    41.406308    41.406308    82.812616 
   16800     1071.228   -24762.636   -25870.235    30.484683    506.87837    -670.2882    254.86387     41.40604     41.40604     82.81208 
   16900     1074.431   -24762.674   -25873.584    70.818537     219.0095    526.19799   -532.75188    41.405094    41.405094    82.810188 
   17000    1072.7089   -24762.729   -25871.858    47.614596   -141.57384   -769.58999    1054.0076    41.404017    41.404017    82.808034 
   17100    1089.4918   -24762.765   -25889.247    -223.1122   -227.33624    413.37055   -855.37091    41.403155    41.403155    82.806309 
   17200    1079.3039   -24762.855   -25878.803    26.986457    532.39907   -119.60078   -331.83892    41.402532    41.402532    82.805065 
   17300    1067.0895   -24763.003   -25866.322    375.65351    509.85022    186.65292    430.45738    41.402486    41.402486    82.804971 
   17400     1073.688   -24763.134   -25873.275    154.07353     325.1107   -197.26016    334.37005    41.403305    41.403305    82.806609 
   17500    1095.6849   -24763.239   -25896.124   -514.74764   -443.38048   -926.29722   -174.56522    41.404588    41.404588    82.809176 
   17600    1078.8416   -24763.365   -25878.835   -89.840617    413.61557    -208.9945   -474.14291    41.405439    41.405439    82.810877 
   17700    1068.5287   -24763.425   -25868.233    32.614346   -38.836655   -383.49995    520.17964    41.406473    41.406473    82.812945 
   17800    1074.5164   -24763.436   -25874.434   -89.451435   -51.737703   -94.708287   -121.90831    41.407132    41.407132    82.814264 
   17900    1083.7173   -24763.479   -25883.991   -387.02961   -470.81727   -191.10647    -499.1651    41.406831    41.406831    82.813662 
   18000    1080.6178   -24763.495   -25880.802   -220.92162    28.315014   -644.05801   -47.021872    41.405787    41.405787    82.811573 
   18100    1072.1879   -24763.435   -25872.026    30.929754     36.93967    73.058186   -17.208593    41.404703    41.404703    82.809405 
   18200    1070.4908   -24763.355   -25870.191    159.87968   -376.62315   -435.12783      1291.39    41.403885    41.403885    82.807769 
   18300    1087.3134   -24763.272   -25887.502   -132.07948    11.478226   -318.12935   -89.587315    41.403595    41.403595     82.80719 
   18400     1075.771   -24763.297   -25875.593    50.926863    -72.94921    47.588718    178.14108    41.403344    41.403344    82.806689 
   18500    1075.9545   -24763.343   -25875.828    60.306197   -400.29883    171.26919    409.94823    41.403307    41.403307    82.806613 
   18600    1071.6397   -24763.409   -25871.433    144.52964   -664.88632    273.96714    824.50809    41.403417    41.403417    82.806834 
   18700    1086.3661   -24763.423   -25886.673    -224.8514   -795.50447   -49.810174    170.76044     41.40419     41.40419    82.808379 
   18800     1070.308   -24763.404   -25870.051    43.672512    453.71604   -205.15553   -117.54297    41.405417    41.405417    82.810833 
   18900    1090.3613   -24763.427   -25890.808   -321.21724   -241.99369   -441.49989   -280.15814    41.406383    41.406383    82.812766 
   19000    1062.6997   -24763.479   -25862.259    233.44544    450.25327     186.6686    63.414451     41.40701     41.40701     82.81402 
   19100    1064.7543   -24763.566   -25864.471    184.57266   -348.95773    1120.6349    -217.9592    41.407053    41.407053    82.814105 
   19200    1073.6251   -24763.589   -25873.666   -55.542226    -203.8423   -190.44569    227.66131    41.407189    41.407189    82.814377 
   19300    1065.4163   -24763.524   -25865.113    103.48794   -345.53467   -103.18112    759.17961    41.407494    41.407494    82.814987 
   19400    1079.6796   -24763.453    -25879.79    -226.0191   -156.54072   -853.86669    332.35011     41.40738     41.40738    82.814759 
   19500     1065.778   -24763.442   -25865.405    158.30662    -158.4269    743.68072   -110.33397    41.406517    41.406517    82.813035 
   19600    1081.4593   -24763.382   -25881.559   -137.16231   -73.348058   -323.77965   -14.359236    41.405862    41.405862    82.811725 
   19700    1078.9583   -24763.387   -25878.978   -10.893291    101.07201   -381.28056    247.52868    41.405041    41.405041    82.810082 
   19800    1068.4638   -24763.436   -25868.177    229.96393    109.99713    462.14862    117.74604    41.404188    41.404188    82.808376 
   19900    1074.9957   -24763.513   -25875.007   -17.565855   -199.13391      20.9276    125.50874    41.403376    41.403376    82.806753 
   20000    1061.3596   -24763.534   -25860.929    611.92296    827.74371    368.93678    639.08838     41.40328     41.40328    82.806559 
   20100    1076.3977   -24763.527    -25876.47   -53.814047   -130.39668    -236.0117    204.96624     41.40444     41.40444    82.808879 
   20200    1077.3556   -24763.502   -25877.436   -48.585411   -21.405703   -231.53467    107.18414    41.405802    41.405802    82.811604 
   20300    1076.3327   -24763.451   -25876.327   -56.284709   -212.87054   -102.95858    146.97499    41.407322    41.407322    82.814643 
   20400    1076.4948   -24763.404   -25876.448   -96.535409   -445.38936    15.235997    140.54714    41.408516    41.408516    82.817031 
   20500    1085.3956   -24763.304   -25885.551   -518.80189    -344.6329   -140.61473    -1071.158    41.409582    41.409582    82.819165 
   20600    1074.3082   -24763.238   -25874.021    -124.4329   -663.35245    916.07561   -626.02186    41.409576    41.409576    82.819152 
   20700    1075.8901   -24763.221   -25875.639   -216.45403    -4.955491   -379.85529   -264.55131    41.408605    41.408605     82.81721 
   20800    1071.8596   -24763.229    -25871.48    54.516731    720.12799   -374.47472   -182.10308    41.406864    41.406864    82.813728 
   20900    1058.9448   -24763.206   -25858.104    333.86358   -77.830555    740.98306    338.43823    41.405203    41.405203    82.810405 
   21000    1075.7547   -24763.137   -25875.415    45.672599   -19.800276    354.55741   -197.73934    41.403997    41.403997    82.807995 
   21100    1072.4177   -24763.075   -25871.904    34.953509    2.6953558      291.962   -189.79683    41.403166    41.403166    82.806332 
   21200    1084.5026   -24763.065   -25884.389    -62.84681    31.061483   -140.90817   -78.693739    41.402619    41.402619    82.805238 
   21300    1067.2282   -24763.127    -25866.59    336.52911    389.61241      213.134    406.84091    41.402539    41.402539    82.805078 
   21400    1072.7442     -24763.2   -25872.366    228.25925    833.85952    37.672375   -186.75414    41.403204    41.403204    82.806408 
   21500    1083.8585   -24763.272   -25883.929   -212.65447    215.64101   -316.17575   -537.42868    41.404549    41.404549    82.809098 
   21600    1080.8223   -24763.359   -25880.878   -41.188998    485.97258   -477.62962   -131.90996    41.405823    41.405823    82.811645 
   21700    1072.8291   -24763.542   -25872.796    45.454783   -142.53423    235.85574    43.042845    41.406602    41.406602    82.813203 
   21800    1085.2597   -24763.735   -25885.841   -391.61729   -460.76325   -508.98606   -205.10255    41.407087    41.407087    82.814174 
   21900    1080.4393   -24763.821   -25880.943   -222.62224   -147.74548   -543.04376    22.922529    41.407788    41.407788    82.815575 
   22000    1073.6239   -24763.918   -25873.994    -44.08056    154.50281   -362.70991    75.965429    41.407875    41.407875     82.81575 
   22100    1090.0912   -24764.001   -25891.103   -477.56806   -454.22267    -1330.507    352.02552    41.407498    41.407498    82.814996 
   22200    1062.4221   -24764.036   -25862.529    196.79689        272.6    328.45218   -10.661501    41.406677    41.406677    82.813354 
   22300    1076.2875   -24764.019   -25876.849   -124.60644   -284.11799   -136.98214    47.280822    41.405774    41.405774    82.811547 
   22400    1074.1485    -24764.03   -25874.648   -29.328545    14.335614   -449.19125       346.87    41.404276    41.404276    82.808552 
   22500    1082.0397   -24764.021   -25882.798   -60.115345   -136.64474   -43.363555  -0.33773568    41.402841    41.402841    82.805683 
   22600    1061.8287   -24764.001   -25861.881    370.56792    -284.6664    1009.3428     387.0273    41.401874    41.401874    82.803749 
   22700     1082.606   -24763.929   -25883.292    33.766254   -227.84725    5.9106376    323.23537    41.401694    41.401694    82.803388 
   22800    1070.8681   -24763.918   -25871.145    294.31731    303.24018    165.47246    414.23928     41.40189     41.40189     82.80378 
   22900    1088.6617   -24763.932   -25889.556   -133.27967   -406.88369    567.51232   -560.46763    41.402698    41.402698    82.805397 
   23000    1083.0614   -24763.964   -25883.797   -188.68441   -227.96149   -61.426121   -276.66562    41.403908    41.403908    82.807816 
   23100    1065.9833   -24763.998   -25866.174    325.44428    781.55165    580.50272   -385.72153    41.405191    41.405191    82.810382 
   23200    1078.6143   -24764.049   -25879.284   -151.90142   -375.50799    67.575258   -147.77152    41.406496    41.406496    82.812992 
   23300    1076.8324   -24764.089   -25877.482  -0.03637621    142.08627   -112.10182   -30.093586    41.407001    41.407001    82.814003 
   23400    1080.9544   -24764.167   -25881.821   -274.14174   -578.24033    181.04849   -425.23339    41.407163    41.407163    82.814325 
   23500    1069.0617   -24764.251   -25869.609     27.63004   -282.13242    632.25315   -267.23061    41.406711    41.406711    82.813422 
   23600     1072.969   -24764.329   -25873.727    42.432221    664.57942   -362.99554   -174.28721    41.405839    41.405839    82.811679 
   23700    1061.9465   -24764.435   -25862.437    242.93276    460.97813   -392.21482    660.03495    41.404635    41.404635    82.809271 
   23800    1071.5248   -24764.479   -25872.384    172.26928    77.684905    85.185557    353.93737    41.403722    41.403722    82.807444 
   23900    1060.7646   -24764.547   -25861.327    445.35019    659.23002     334.5037    342.31684    41.403083    41.403083    82.806166 
   24000    1078.7837   -24764.593   -25880.003      21.8724    28.211079    -105.6798    143.08592    41.403092    41.403092    82.806183 
   24100    1068.5119   -24764.665   -25869.455    158.10982   -186.78649    187.11874    473.99722    41.403351    41.403351    82.806702 
   24200    1085.8606   -24764.742    -25887.47    -312.2677    361.19165   -993.83614    -304.1586    41.403729    41.403729    82.807457 
   24300    1068.3989   -24764.913   -25869.587    236.90595    592.16457   -79.915964    198.46925    41.403348    41.403348    82.806697 
   24400    1067.5302   -24765.031   -25868.806    346.88995    720.32282    376.40543   -56.058384    41.403512    41.403512    82.807025 
   24500    1091.0846   -24765.058   -25893.187   -363.04805    340.77297   -875.35904   -554.55808    41.404614    41.404614    82.809229 
   24600    1079.7844   -24765.091   -25881.536   -44.514809    -283.4804   -138.97015    288.90613    41.405559    41.405559    82.811119 
   24700    1077.7627   -24765.174   -25879.529   -146.07109    21.885101   -464.63861    4.5402499    41.406039    41.406039    82.812079 
   24800    1084.0147   -24765.191    -25886.01   -340.10172   -348.40525   -337.62894   -334.27098    41.406415    41.406415    82.812831 
   24900    1070.6355   -24765.213   -25872.199    13.469048   -152.46499   -93.033069     285.9052    41.406362    41.406362    82.812723 
   25000    1064.6486   -24765.267   -25866.063    253.59255    476.27163    12.228015      272.278    41.405894    41.405894    82.811788 
   25100    1069.6438   -24765.307   -25871.268    148.60733    479.75216   -217.26779    183.33761    41.405255    41.405255    82.810511 
   25200    1074.7613   -24765.406   -25876.657   -116.28523    7.6590276   -702.29099    345.77628    41.404134    41.404134    82.808269 
   25300    1066.1602    -24765.49   -25867.849    281.87742     142.0339    383.40023    320.19813    41.403064    41.403064    82.806127 
   25400     1071.469   -24765.505   -25873.353    337.01635    98.731587    343.56614    568.75131    41.402778    41.402778    82.805556 
   25500    1077.4383   -24765.536   -25879.555    44.532997    85.342165    410.55075   -362.29393    41.403026    41.403026    82.806053 
   25600    1071.8127   -24765.597     -25873.8    126.34381   -247.00899    481.54735    144.49307    41.403319    41.403319    82.806637 
   25700    1071.2539   -24765.586   -25873.211    121.12053    214.89108    325.85913    -177.3886    41.404275    41.404275    82.808551 
   25800    1062.7549   -24765.599   -25864.436    356.99529     413.1142    161.53262    496.33905    41.405168    41.405168    82.810337 
   25900    1072.5885   -24765.534   -25874.539   -50.214891   -182.25101   -109.21808    140.82442     41.40652     41.40652    82.813039 
   26000    1068.8279   -24765.453   -25870.569   -58.898646      -44.922   -144.17985    12.405909    41.407244    41.407244    82.814488 
   26100    1078.0773   -24765.343   -25880.023   -56.833098   -22.089359    64.581782   -212.99172    41.407225    41.407225    82.814449 
   26200    1067.0699   -24765.232   -25868.531    223.74862    48.334742    302.69857    320.21255    41.406674    41.406674    82.813348 
   26300    1069.3625   -24765.102   -25870.771    134.35424    316.30368    47.286266    39.472785    41.406241    41.406241    82.812482 
   26400    1075.0682   -24765.016   -25876.584   -103.06132   -617.27309    427.87296   -119.78384    41.405327    41.405327    82.810653 
   26500    1066.4303     -24764.9   -25867.538    270.67942    243.15803    175.01089    393.86935    41.404198    41.404198    82.808396 
   26600    1068.2817   -24764.797   -25869.349    167.74203     214.7594    72.042809    216.42387    41.403212    41.403212    82.806424 
   26700    1072.8847   -24764.701   -25874.012    125.05514   -109.69454    290.47431    194.38565    41.402676    41.402676    82.805352 
   26800    1080.9931   -24764.596    -25882.29    15.694637    313.20789   -254.96025   -11.163731    41.402916    41.402916    82.805832 
   26900    1092.6126   -24764.553   -25894.262   -511.96557   -313.37982   -380.13428   -842.38261    41.403735    41.403735    82.807469 
   27000    1076.3058   -24764.548   -25877.396   -77.138285   -133.46947   -270.30521    172.35983    41.404459    41.404459    82.808917 
   27100    1073.4249   -24764.584   -25874.453  -0.83018598    223.18732    184.47085   -410.14873    41.404925    41.404925    82.809849 
   27200    1065.2195   -24764.628   -25866.014    181.54461    111.32107    635.84667   -202.53391    41.405027    41.405027    82.810054 
   27300    1072.1522   -24764.602   -25873.156    91.079319    19.215984    77.978898    176.04307    41.405335    41.405335    82.810669 
   27400     1081.861   -24764.541   -25883.133   -235.82888    548.46469   -81.100282    -1174.851    41.405665    41.405665     82.81133 
   27500    1067.8613   -24764.457   -25868.575    164.86597    103.72737     253.0778    137.79275    41.405924    41.405924    82.811847 
   27600    1065.1446   -24764.327   -25865.636    129.02861    101.07874    126.69994    159.30714    41.406273    41.406273    82.812545 
   27700     1080.517   -24764.158   -25881.361   -23.149947   -200.85678    214.50638   -83.099441    41.406183    41.406183    82.812366 
   27800    1077.9373   -24764.077   -25878.612   -31.248733   -534.54288    317.27555    123.52113    41.405717    41.405717    82.811433 
   27900    1084.6954   -24763.999   -25885.522   -262.20212   -456.64509   -77.168445   -252.79283    41.405475    41.405475    82.810951 
   28000    1067.2722   -24763.963   -25867.472    221.26484   -514.90444    765.19574    413.50322    41.404868    41.404868    82.809736 
   28100    1067.3373   -24763.927   -25867.502    219.76438    27.701314     180.2072    451.38463    41.404438    41.404438    82.808876 
   28200    1071.1793   -24763.796   -25871.344    -12.21792    89.248708   -323.21139    197.30892    41.404449    41.404449    82.808898 
   28300    1076.9214   -24763.735   -25877.219   -72.751811   -518.16976    518.60953    -218.6952    41.403998    41.403998    82.807996 
   28400    1080.1655   -24763.688   -25880.527   -33.755221    484.01515    106.71957   -692.00038    41.403521    41.403521    82.807042 
   28500    1066.1985   -24763.654   -25866.052    350.25622    796.28283    332.83402   -78.348205    41.403329    41.403329    82.806657 
   28600    1061.7314   -24763.624   -25861.404    404.25773    685.89821     369.3527    157.52228    41.403577    41.403577    82.807154 
   28700    1087.1301   -24763.523   -25887.563   -358.44618   -352.81001   -162.17031   -560.35821    41.404734    41.404734    82.809469 
   28800    1076.4782   -24763.472   -25876.499   -64.640513    286.91074    -64.87943   -415.95285    41.405237    41.405237    82.810474 
   28900    1076.0199   -24763.422   -25875.975   -29.920494   -123.84343   -109.43675     143.5187    41.405718    41.405718    82.811436 
   29000    1078.0403   -24763.387   -25878.029   -82.038389     255.6201   -574.44674    72.711478    41.406119    41.406119    82.812237 
   29100    1073.8945   -24763.459   -25873.814   -57.962837   -326.92405    21.979358    131.05618    41.405846    41.405846    82.811691 
   29200    1068.2551   -24763.542   -25868.066    208.86017   -739.81739    794.49205    571.90586    41.405236    41.405236    82.810471 
   29300    1070.8933   -24763.516   -25870.768    87.959695    554.27339   -250.91133   -39.482971    41.405443    41.405443    82.810885 
   29400    1077.3338   -24763.504   -25877.416    61.503419    -184.4164    288.93478    79.991881    41.405385    41.405385    82.810771 
   29500    1068.7861   -24763.465   -25868.538    142.10222    272.43122   -29.773235    183.64866    41.405602    41.405602    82.811205 
   29600    1069.4216   -24763.432   -25869.163    206.78696    71.634969    198.61478    350.11114    41.405709    41.405709    82.811419 
   29700    1072.4509   -24763.451   -25872.313    129.89947   -1104.2626    631.51298    862.44801    41.405323    41.405323    82.810645 
   29800    1068.8505   -24763.534   -25868.674    121.57532    218.83557   -244.45455    390.34496    41.404621    41.404621    82.809242 
   29900    1078.0691   -24763.578    -25878.25   -18.086589   -48.232198    170.98159   -177.00916    41.404283    41.404283    82.808565 
   30000    1085.0419    -24763.52   -25885.401   -372.11733    -1030.071   -122.37472    36.093776    41.404859    41.404859    82.809717 
   30100    1076.6431   -24763.475   -25876.672     9.180901   -71.538573   -121.93398    221.01525    41.405012    41.405012    82.810024 
   30200    1085.0132   -24763.441   -25885.292   -157.97848   -352.22075    130.76527   -252.47996    41.405126    41.405126    82.810251 
   30300    1069.8932   -24763.442    -25869.66     169.1141    283.68383     246.7768   -23.118332    41.405178    41.405178    82.810356 
   30400    1074.8755   -24763.429   -25874.798   -18.259816    45.367365    407.78094   -507.92776    41.405196    41.405196    82.810392 
   30500    1075.5319   -24763.366   -25875.414    -58.30026    8.7080719    10.267018   -193.87587    41.405549    41.405549    82.811098 
   30600    1064.8444   -24763.344   -25864.342    169.37108     43.75353   -258.90847    723.26818    41.405516    41.405516    82.811032 
   30700    1079.1858   -24763.246   -25879.072   -52.902659   -324.33359    560.38969   -394.76407    41.405674    41.405674    82.811349 
   30800    1072.0719   -24763.178   -25871.649    216.23644   -105.67917    440.98724    313.40124    41.405986    41.405986    82.811972 
   30900    1068.7378   -24763.118   -25868.141    192.95498    -330.7246    983.34405   -73.754503     41.40686     41.40686     82.81372 
   31000    1084.4019   -24763.046   -25884.265   -303.19514   -629.04802   -12.740308   -267.79709    41.407869    41.407869    82.815737 
   31100    1064.5485   -24763.037   -25863.729     36.27472    -236.7818    44.690516    300.91545    41.408027    41.408027    82.816053 
   31200     1076.081    -24763.02   -25875.636   -176.29625    70.375262    279.72603   -878.99005    41.407575    41.407575    82.815149 
   31300    1074.7856   -24763.107   -25874.384   -89.403166   -76.769957   -162.44606   -28.993479    41.405804    41.405804    82.811607 
   31400    1057.0587   -24763.165   -25856.113    504.76228    67.685102    1352.4358     94.16591    41.404082    41.404082    82.808163 
   31500    1078.5901   -24763.093   -25878.304    99.933221   -269.52231    471.00817     98.31381    41.404022    41.404022    82.808044 
   31600    1072.8767   -24763.082   -25872.385     123.7141    425.05318   -92.775848    38.864967    41.404518    41.404518    82.809036 
   31700    1083.9867   -24763.026   -25883.816   -148.68791   -527.50518    23.754764      57.6867    41.405715    41.405715     82.81143 
   31800    1073.3864   -24763.034   -25872.864    55.188037    155.17832    158.83588    -148.4501    41.406476    41.406476    82.812951 
   31900    1087.4224   -24762.993   -25887.336   -438.81372    15.543053   -314.41533   -1017.5689    41.407316    41.407316    82.814633 
   32000    1064.4271   -24762.957   -25863.524    84.398287    507.01671   -59.684083   -194.13777    41.407829    41.407829    82.815657 
   32100    1089.5076   -24762.863   -25889.362   -519.27112   -235.68207   -1042.2985   -279.83283    41.408411    41.408411    82.816822 
   32200    1081.4353   -24762.863   -25881.015   -163.81741    117.37013    74.995338    -683.8177    41.407562    41.407562    82.815125 
   32300    1086.5914    -24762.89   -25886.374   -370.71309   -454.56633   -35.440595   -622.13235    41.406251    41.406251    82.812501 
   32400    1069.1356   -24762.905    -25868.34    164.21398    155.66411    440.52179   -103.54396    41.404737    41.404737    82.809474 
   32500    1082.5397   -24762.879   -25882.173    -96.01312   -493.04215    237.01571   -32.012918    41.403646    41.403646    82.807292 
   32600    1066.4477   -24762.871   -25865.526    364.33166    107.16143    132.83334    853.00022    41.402907    41.402907    82.805815 
   32700    1081.7888   -24762.923   -25881.441    25.985499     106.2516    353.13737   -381.43247    41.402537    41.402537    82.805075 
   32800    1066.1196   -24763.025   -25865.342    486.45531    793.94515    698.50406   -33.083278    41.402601    41.402601    82.805203 
   32900    1077.6083   -24763.044    -25877.24   -30.125596    381.70981   -404.39084   -67.695759     41.40415     41.40415    82.808301 
   33000    1077.3578   -24763.039   -25876.976   -123.63097   -132.65329   -31.279698   -206.95994    41.406093    41.406093    82.812185 
   33100     1077.727   -24762.983   -25877.301   -182.67453   -181.83507   -99.855508   -266.33301     41.40812     41.40812    82.816241 
   33200    1077.1765   -24762.948   -25876.697   -238.30329    180.96943   -793.37345   -102.50585    41.408993    41.408993    82.817986 
   33300    1077.9705   -24763.013   -25877.583   -192.47314    -318.3143    -71.28902   -187.81609    41.408282    41.408282    82.816563 
   33400    1080.8484   -24762.991   -25880.536   -111.40595    683.51619   -1172.5668    154.83277     41.40746     41.40746     82.81492 
   33500    1084.7021   -24762.995   -25884.525    -294.1578   -343.46606    18.718363   -557.72572    41.406299    41.406299    82.812599 
   33600    1074.6577   -24763.015    -25874.16    199.31852   -350.93503    104.05124    844.83936    41.404833    41.404833    82.809666 
   33700    1091.1823   -24763.074   -25891.304    -242.9113     134.1422   -328.78687   -534.08922    41.403723    41.403723    82.807446 
   33800    1072.5092   -24763.204   -25872.127    224.29085     279.6879   -176.62185     569.8065    41.402831    41.402831    82.805663 
   33900    1075.5788   -24763.289   -25875.385    137.85366   -267.20241    397.32717    283.43622    41.403012    41.403012    82.806025 
   34000    1067.8595   -24763.344   -25867.459    201.70907    -155.1967    559.79919    200.52474    41.403999    41.403999    82.807998 
   34100    1072.6173   -24763.413   -25872.448    101.57718    293.27862   -450.97434    462.42726    41.404809    41.404809    82.809618 
   34200    1061.2241   -24763.523   -25860.778    277.56074    431.96997    -133.7822    534.49446    41.405276    41.405276    82.810552 
   34300    1082.9284   -24763.532   -25883.228   -338.61591   -677.36283    -296.7613   -41.723591    41.406136    41.406136    82.812272 
   34400    1081.1092   -24763.581   -25881.396   -200.40482   -104.94196   -743.60546    247.33297    41.406469    41.406469    82.812937 
   34500    1082.0354   -24763.657   -25882.429   -264.72106     287.2116   -565.15764   -516.21713    41.406357    41.406357    82.812714 
   34600     1061.411   -24763.705   -25861.153    154.55147    589.17108    272.24421   -397.76088    41.405872    41.405872    82.811743 
   34700    1078.0267   -24763.744   -25878.372   -201.32034   -586.58115   -29.726503    12.346633    41.405249    41.405249    82.810498 
   34800     1077.579   -24763.801   -25877.966     90.02527    604.55936   -420.10566    85.622112    41.404349    41.404349    82.808698 
   34900    1075.5174   -24763.864   -25875.897     69.46785   -53.582134   -144.99129    406.97697    41.403811    41.403811    82.807623 
   35000    1069.4023   -24763.956   -25869.666      238.164    363.25323    219.17111    132.06768    41.403447    41.403447    82.806894 
   35100    1074.5497   -24764.025   -25875.058    34.503576    79.451716    109.43284   -85.373826    41.403773    41.403773    82.807545 
   35200    1073.2588   -24764.087   -25873.785    10.009719    225.94159    13.854239   -209.76667    41.404261    41.404261    82.808521 
   35300    1082.0351     -24764.2   -25882.972   -87.235702    202.63493   -296.67669   -167.66534    41.404215    41.404215     82.80843 
   35400    1077.2439   -24764.291    -25878.11    71.937722   -206.70649   -320.52384     743.0435    41.404428    41.404428    82.808857 
   35500    1075.8443   -24764.437   -25876.808   -108.09422    47.611662     191.2309   -563.12521    41.404635    41.404635     82.80927 
   35600     1072.237   -24764.596   -25873.237    58.194738    154.80247   -57.497848    77.279593    41.404806    41.404806    82.809611 
   35700    1073.6484   -24764.784   -25874.885    73.946182    301.72952   -24.492958   -55.398016    41.404712    41.404712    82.809423 
   35800    1070.8577   -24764.972   -25872.187    223.47168    266.93475    296.59777     106.8825    41.404925    41.404925     82.80985 
   35900    1084.4557   -24765.134   -25886.409   -284.38562   -499.10584   -3.6975996   -350.35341    41.405559    41.405559    82.811117 
   36000     1066.379   -24765.269   -25867.853    84.745256    503.27385   -34.422359   -214.61572    41.406215    41.406215    82.812431 
   36100    1088.7926    -24765.34   -25891.099   -567.23318    296.36725   -728.61791   -1269.4489    41.406858    41.406858    82.813717 
   36200    1072.8528   -24765.418   -25874.696   -28.583597   -122.93205    341.75259   -304.57133    41.406638    41.406638    82.813276 
   36300    1079.4465   -24765.481   -25881.577   -251.87747    292.43339   -786.15101    -261.9148     41.40599     41.40599     82.81198 
   36400    1073.6622   -24765.518   -25875.633    10.887531   -55.623804    328.88474   -240.59835    41.405032    41.405032    82.810065 
   36500    1076.3902   -24765.531   -25878.467    7.9367704    166.62069    -148.2612    5.4508213    41.404451    41.404451    82.808903 
   36600    1081.6759    -24765.59    -25883.99   -188.23278    191.56882   -472.92259   -283.34458     41.40406     41.40406     82.80812 
   36700     1066.048   -24765.662   -25867.904    349.95417    688.15173   -333.77607    695.48685    41.403726    41.403726    82.807453 
   36800    1082.0852   -24765.663   -25884.487   -221.00392   -74.657705   -200.84251   -387.51156    41.404322    41.404322    82.808643 
   36900    1061.1204   -24765.689   -25862.837    363.34646    97.687225    368.36864    623.98352    41.404646    41.404646    82.809293 
   37000    1076.9925   -24765.684   -25879.243   -68.299906   -130.86305    359.82481   -433.86148    41.405121    41.405121    82.810242 
   37100    1074.8498   -24765.703   -25877.046    -93.46623    223.63466   -111.92116    -392.1122     41.40551     41.40551    82.811021 
   37200    1070.7726   -24765.715   -25872.842    115.13236   -442.83475    757.68373    30.548098     41.40563     41.40563     82.81126 
   37300    1062.1037    -24765.73   -25863.894    333.02951   -161.69488    538.99272     621.7907    41.405567    41.405567    82.811135 
   37400      1084.75   -24765.704   -25887.283   -329.54768    44.277972   -646.51196   -386.40907    41.405624    41.405624    82.811249 
   37500     1072.817   -24765.682   -25874.923    32.277289    473.12192   -299.71662   -76.573435    41.405073    41.405073    82.810145 
   37600    1065.9039   -24765.646   -25867.739    144.33181    644.89894  -0.22846632   -211.67505    41.404438    41.404438    82.808875 
   37700    1077.4021   -24765.549   -25879.531   -41.952746    15.606453   -493.48986    352.02517    41.403865    41.403865     82.80773 
   37800    1066.6925   -24765.476   -25868.385    414.82613    -187.8771    970.50047    461.85502    41.403273    41.403273    82.806547 
   37900    1088.9316    -24765.35   -25891.253   -348.56736   -714.54598   -90.890487   -240.26562    41.403754    41.403754    82.807507 
   38000     1065.797   -24765.271   -25867.254    172.63884    188.52533   -3.7532925    333.14449    41.404017    41.404017    82.808033 
   38100    1072.5054   -24765.184   -25874.103    25.476519    274.24592   -741.15789    543.34152    41.404594    41.404594    82.809189 
   38200     1074.672   -24765.059   -25876.218   -23.037702    189.79968    363.86209   -622.77487    41.405526    41.405526    82.811053 
   38300     1072.173    -24764.94   -25873.515    44.046603    34.130622   -513.02462    611.03381    41.406467    41.406467    82.812934 
   38400    1073.9707   -24764.783   -25875.217   -137.84966   -556.48349   -108.92354    251.85805    41.407391    41.407391    82.814782 
   38500    1080.1862   -24764.575   -25881.436   -248.09032   -102.18815   -559.26511   -82.817717    41.407974    41.407974    82.815949 
   38600    1077.1575   -24764.402   -25878.131   -136.10323   -164.25267   -438.65845    194.60142    41.407589    41.407589    82.815178 
   38700    1070.3025   -24764.242   -25870.884    127.32462   -135.26127   -9.4117969    526.64694    41.406707    41.406707    82.813413 
   38800    1081.5141   -24764.111   -25882.345   -8.0815555   -159.07051    -112.5021    247.32794    41.405812    41.405812    82.811625 
   38900    1069.1384   -24764.048   -25869.486    189.57523    -207.2607    235.99112    539.99528      41.4049      41.4049    82.809801 
   39000    1083.6853   -24763.938   -25884.416   -113.89545   -196.92652   -596.34621    451.58639    41.404613    41.404613    82.809225 
   39100    1073.1164   -24763.851   -25873.402    95.615988   -33.976956    654.48413   -333.65921    41.404444    41.404444    82.808888 
   39200    1073.7327   -24763.727   -25873.915    66.552076    480.26731    153.10015   -433.71123    41.404973    41.404973    82.809946 
   39300    1070.3219   -24763.632   -25870.294    170.11254    256.71749   -329.90498    583.52512    41.405763    41.405763    82.811526 
   39400     1082.619   -24763.536   -25882.912   -221.22802   -204.57883   -205.34711   -253.75813    41.406645    41.406645    82.813289 
   39500    1068.7436   -24763.524   -25868.554     49.22321   -201.87253    132.43217    217.10999    41.406714    41.406714    82.813428 
   39600    1071.2001   -24763.523   -25871.092    -5.355722    676.29921    -477.3627   -215.00368    41.406392    41.406392    82.812785 
   39700    1087.4584   -24763.503   -25887.883   -395.09699   -589.23732    10.786643   -606.84029    41.406218    41.406218    82.812435 
   39800    1069.9636   -24763.497   -25869.788    39.866771     246.5333    131.33352   -258.26651    41.405797    41.405797    82.811594 
   39900    1063.2241   -24763.464   -25862.787    255.04063   -250.00693    790.06303    225.06578     41.40525     41.40525      82.8105 
   40000    1079.3428   -24763.367   -25879.356    80.141479   -219.36675    304.39779    155.39339    41.404978    41.404978    82.809956 
   40100    1081.6083   -24763.353   -25881.684   -56.914085   -52.351352    76.658374   -195.04928     41.40469     41.40469    82.809381 
   40200     1076.775   -24763.406   -25876.739   -29.694829   -80.113166   -260.90189    251.93057    41.404215    41.404215     82.80843 
   40300    1076.0258    -24763.41   -25875.969    1.9115146    203.78523    202.68158   -400.73227    41.403929    41.403929    82.807858 
   40400    1070.9057   -24763.433   -25870.698     122.5802    719.46429   -130.23451    -221.4892    41.403903    41.403903    82.807805 
   40500    1070.5827   -24763.438   -25870.369    143.04066     519.3653    247.82806   -338.07139     41.40427     41.40427    82.808541 
   40600    1080.2824    -24763.47    -25880.43   -130.00762   -44.360619   -526.40918    180.74694    41.404765    41.404765     82.80953 
   40700    1079.1756   -24763.504    -25879.32   -48.729622    39.615014    331.23354   -517.03742    41.405582    41.405582    82.811164 
   40800    1075.7827   -24763.478   -25875.786    19.440291    -303.4248    480.81594   -119.07027    41.406788    41.406788    82.813577 
   40900    1071.4008   -24763.477   -25871.254    -77.59734    273.67225   -364.86389   -141.60038    41.407985    41.407985    82.815969 
   41000    1072.4171   -24763.469   -25872.296   -34.578048    88.376035   -76.682332   -115.42785    41.408637    41.408637    82.817274 
   41100    1077.6833   -24763.451   -25877.724   -152.50781    206.32664   -328.14215   -335.70791    41.408538    41.408538    82.817075 
   41200    1070.0246   -24763.453   -25869.807    87.744412     442.6212   -70.594563    -108.7934    41.407523    41.407523    82.815046 
   41300    1074.6692   -24763.441   -25874.597    100.76592    641.24393   -155.09291   -183.85327    41.406392    41.406392    82.812784 
   41400    1073.8821   -24763.454   -25873.796      159.638    342.68133    245.06006   -108.82738    41.405344    41.405344    82.810689 
   41500    1072.6027    -24763.47   -25872.489    65.747526   -447.24257    284.89469    359.59047    41.404762    41.404762    82.809525 
   41600    1063.7264   -24763.531   -25863.373    377.24863    364.48112    264.18479    503.07997    41.403993    41.403993    82.807986 
   41700    1069.5328    -24763.55   -25869.396    128.35161    89.729176   -50.494155     345.8198    41.403884    41.403884    82.807767 
   41800    1065.8511   -24763.506   -25865.545    203.49074      56.3362    25.359183    528.77685    41.404416    41.404416    82.808832 
   41900    1077.9507   -24763.406   -25877.955   -38.366516    -240.0165   -108.45351    233.37046    41.405323    41.405323    82.810645 
   42000    1073.8189    -24763.29   -25873.567   -65.568483    46.017301   -256.64486    13.922111    41.406428    41.406428    82.812857 
   42100    1073.3435   -24763.205    -25872.99    28.477469    621.01386    58.341452    -593.9229    41.407008    41.407008    82.814016 
   42200    1068.0328   -24763.223   -25867.518    109.01889   -244.41094    746.04144   -174.57385    41.406664    41.406664    82.813328 
   42300    1083.9041   -24763.173   -25883.878   -145.06883   -60.432062   -89.907269   -284.86716    41.406218    41.406218    82.812435 
   42400    1083.0349   -24763.147   -25882.953   -214.23824    149.83712    359.51636   -1152.0682    41.405452    41.405452    82.810904 
   42500     1077.015   -24763.129   -25876.711   -29.409987   -436.56872   -11.181353    359.52011    41.404656    41.404656    82.809312 
   42600     1083.431    -24763.15   -25883.366   -97.655663    65.717599   -266.44765   -92.236942    41.403942    41.403942    82.807883 
   42700    1067.6802   -24763.251   -25867.181    295.69066    99.427381   -147.79669    935.44128    41.403273    41.403273    82.806547 
   42800    1066.5518   -24763.322   -25866.085    252.75247    71.242197    330.08985    356.92536    41.403312    41.403312    82.806624 
   42900    1053.3345   -24763.328   -25852.425    715.84349    327.57582    703.38844    1116.5662    41.404135    41.404135     82.80827 
   43000    1075.6385   -24763.295   -25875.453   -22.703594   -195.08286    344.03859   -217.06651    41.405832    41.405832    82.811665 
   43100    1078.5538   -24763.268   -25878.441   -186.14956     297.3388   -477.25563   -378.53184    41.407309    41.407309    82.814618 
   43200    1059.2399   -24763.296   -25858.499    229.51949     445.7911    302.01974   -59.252377     41.40807     41.40807     82.81614 
   43300    1082.7895   -24763.301   -25882.853   -433.82374   -177.53774   -76.375649   -1047.5578    41.408616    41.408616    82.817232 
   43400      1076.65   -24763.356    -25876.56   -47.602809    -99.03055    194.90337   -238.68124    41.407909    41.407909    82.815818 
   43500    1063.8317   -24763.391   -25863.342    235.12852    54.777296    291.84492    358.76334    41.407007    41.407007    82.814015 
   43600    1076.9298    -24763.43   -25876.923   -112.73776    45.524691   -258.36436    -125.3736    41.405964    41.405964    82.811928 
   43700    1071.7984   -24763.484   -25871.672    163.37242    602.06508   -208.53412    96.586295    41.404743    41.404743    82.809486 
   43800    1073.4059   -24763.563   -25873.413    158.64033    197.49564   -164.14434     442.5697    41.403777    41.403777    82.807553 
   43900    1076.2559   -24763.604   -25876.401   -1.2666196    272.94293     419.9061   -696.64889    41.403688    41.403688    82.807376 
   44000    1090.3916   -24763.666   -25891.078    -351.8747   -505.15444   -108.50133   -441.96832    41.403788    41.403788    82.807577 
   44100    1075.8081   -24763.812   -25876.146    96.419628    700.36994   -180.14209   -230.96897    41.403768    41.403768    82.807535 
   44200     1071.689   -24763.928   -25872.003    48.513832    300.50962   -38.119094   -116.84903    41.404361    41.404361    82.808723 
   44300    1077.9665   -24763.988   -25878.553   -50.172878   -478.68351   -450.16179    778.32667    41.405214    41.405214    82.810428 
   44400    1090.0513    -24763.95   -25891.011   -393.01135   -341.63998   -321.94518    -515.4489     41.40659     41.40659    82.813181 
   44500    1075.8987   -24763.922    -25876.35   -136.83546   -27.491688   -410.99286    27.978173    41.407316    41.407316    82.814631 
   44600    1074.8167   -24763.962    -25875.27   -192.84782    288.91147    -256.0284   -611.42652    41.407121    41.407121    82.814243 
   44700    1074.4023   -24763.923   -25874.803   -8.7023292    189.80588    75.102044   -291.01491    41.406797    41.406797    82.813594 
   44800    1081.9657   -24763.935   -25882.636   -287.55057    289.29238   -669.15253   -482.79156    41.406009    41.406009    82.812019 
   44900    1079.4411   -24764.026   -25880.116   -19.336497    81.546005   -12.229054   -127.32644    41.404557    41.404557    82.809114 
   45000    1085.2642    -24764.09   -25886.201   -286.46036   -685.52283   -521.53703    347.67878    41.403551    41.403551    82.807102 
   45100    1086.1873    -24764.16   -25887.225   -156.67685     111.1842   -400.37429   -180.84045    41.402764    41.402764    82.805528 
   45200    1087.7478   -24764.229   -25888.908    -169.4093    322.82413   -508.06704   -322.98497    41.402626    41.402626    82.805253 
   45300    1066.4956   -24764.314   -25867.019    293.36038    453.07456   -144.77672     571.7833    41.402887    41.402887    82.805775 
   45400    1088.0239   -24764.386    -25889.35    -207.7222    460.94067   -883.32758   -200.77971    41.403865    41.403865     82.80773 
   45500    1070.5765   -24764.445    -25871.37   -59.451716   -647.89373   -95.372858    564.91144    41.405093    41.405093    82.810186 
   45600    1082.4564   -24764.449   -25883.657   -302.40638    -351.0389   -841.11662    284.93639    41.406444    41.406444    82.812889 
   45700     1069.089   -24764.427   -25869.814    1.3886111   -17.483469     124.7803     -103.131    41.407538    41.407538    82.815076 
   45800    1064.9454   -24764.363   -25865.466    139.28478   -436.32397    95.292477    758.88583    41.407942    41.407942    82.815883 
   45900    1074.1921   -24764.323   -25874.986   -42.962652    261.76923   -345.24966   -45.407525     41.40739     41.40739     82.81478 
   46000    1066.8394   -24764.295   -25867.355    186.52829    580.73065   -57.362559     36.21676    41.406196    41.406196    82.812392 
   46100     1072.972   -24764.215   -25873.617    157.96349    387.52755    83.780517    2.5824195    41.405289    41.405289    82.810578 
   46200    1084.5041    -24764.16   -25885.485   -163.05493      525.243   -897.74674   -116.66105    41.404474    41.404474    82.808949 
   46300    1078.6385   -24764.104   -25879.364   -6.6072322    75.128074    235.91225   -330.86202    41.403979    41.403979    82.807958 
   46400    1070.3131   -24764.089   -25870.741     263.5419    484.73776    484.24109   -178.35314    41.403817    41.403817    82.807634 
   46500    1063.8006   -24764.018   -25863.937    323.47991    610.58299    751.57173   -391.71498    41.404592    41.404592    82.809183 
   46600    1059.6232   -24763.978   -25859.577    360.51491    397.62677    445.45363    238.46434    41.405583    41.405583    82.811167 
   46700    1080.1578   -24763.834   -25880.665   -159.45617    621.97134   -301.81748   -798.52237    41.407447    41.407447    82.814894 
   46800    1079.7239   -24763.767    -25880.15   -192.86081    153.09094   -229.94067   -501.73268    41.408516    41.408516    82.817031 
   46900    1075.7477   -24763.761   -25876.033  0.067548526   -675.58542    180.47493    495.31313    41.408831    41.408831    82.817661 
   47000     1074.771   -24763.782   -25875.043   -74.732014    217.33905   -377.68191   -63.853184    41.408751    41.408751    82.817501 
   47100     1078.023   -24763.755   -25878.379   -147.19834    -1048.897   -204.09912    811.40105    41.408462    41.408462    82.816924 
   47200    1061.7246   -24763.703   -25861.475    111.30693    775.20037   -800.21795    358.93836     41.40791     41.40791     82.81582 
   47300    1067.9544   -24763.538   -25867.751    58.797465    615.41229   -48.058755   -390.96114    41.407673    41.407673    82.815347 
   47400    1080.0945   -24763.329   -25880.094   -365.97362    230.79439   -791.42971   -537.28554    41.407586    41.407586    82.815172 
   47500    1070.7498   -24763.062   -25870.166    62.875273    123.31368    278.71451   -213.40237    41.407361    41.407361    82.814723 
   47600     1073.089   -24762.835   -25872.357   -68.120373    296.11886   -179.84462   -320.63537    41.406916    41.406916    82.813833 
   47700    1078.0613   -24762.668   -25877.331   -43.320846   -191.99942   -66.276784    128.31366    41.406026    41.406026    82.812053 
   47800    1078.1679     -24762.5   -25877.274   -15.419421    -29.80563   -343.31816    326.86553    41.405291    41.405291    82.810582 
   47900    1075.0181    -24762.34   -25873.857    157.35745    404.37526   -60.072215    127.76929    41.405119    41.405119    82.810239 
   48000    1075.9773   -24762.195   -25874.703    40.591382     548.3091   -533.08676    106.55181    41.405616    41.405616    82.811233 
   48100    1081.7344   -24762.112   -25880.574     -123.545    93.991888    335.28142   -799.90831    41.406149    41.406149    82.812298 
   48200    1062.9119   -24762.115   -25861.114    377.18126    472.89576    225.12575    433.52228    41.406404    41.406404    82.812808 
   48300     1075.308   -24762.131   -25873.947    45.210687    -343.4762    -27.94001    507.04828    41.406961    41.406961    82.813922 
   48400    1061.6876   -24762.098   -25859.832    395.59916     452.7875    434.77066    299.23933    41.407778    41.407778    82.815556 
   48500    1079.1572    -24762.02   -25877.816   -186.50247   -490.16592    453.11785   -522.45933    41.408772    41.408772    82.817545 
   48600    1068.2084    -24761.99   -25866.466   -12.796392    -97.63139   -3.2137784    62.455992    41.409048    41.409048    82.818095 
   48700      1059.82   -24761.913   -25857.716    155.29224     134.8808    652.58984   -321.59394     41.40934     41.40934     82.81868 
   48800    1070.7019   -24761.805   -25868.859     53.18711    -417.9662    317.38763     260.1399    41.409339    41.409339    82.818678 
   48900    1087.0935   -24761.633   -25885.635   -506.61103   -169.32095   -391.29958   -959.21255    41.409343    41.409343    82.818686 
   49000    1077.9638   -24761.523   -25876.085   -7.7591271    192.00189    202.56733    -417.8466    41.408485    41.408485    82.816971 
   49100    1072.2391   -24761.428   -25870.072    107.77842   -67.427705    665.45085   -274.68788    41.407626    41.407626    82.815251 
   49200    1072.0224   -24761.277   -25869.696    122.80211   -118.79075    447.42898    39.768106    41.407359    41.407359    82.814717 
   49300    1088.7963   -24761.113   -25886.876   -436.79534   -195.32079   -495.84025   -619.22498     41.40737     41.40737     82.81474 
   49400    1079.3968   -24760.915   -25876.959   -172.29976   -581.54583    492.01009   -427.36355    41.407469    41.407469    82.814938 
   49500    1067.3101   -24760.729   -25864.276     243.3471    854.45391   -299.71485    175.30223    41.407608    41.407608    82.815216 
   49600    1079.1891   -24760.628   -25876.457   -67.435409   -171.83279   -177.59718    147.12375    41.407634    41.407634    82.815268 
   49700    1072.7771   -24760.606   -25869.806    42.147093    -239.3367    209.73112    156.04686    41.407389    41.407389    82.814778 
   49800    1065.6574   -24760.518   -25862.357    245.02933   -128.17312    598.28241     264.9787    41.407511    41.407511    82.815022 
   49900    1074.7164   -24760.469   -25871.674   -57.771112    382.68194   -20.683722   -535.31155    41.407476    41.407476    82.814951 
   50000    1088.7219   -24760.387   -25886.073   -255.55301   -585.79369   -245.54633    64.680984    41.407687    41.407687    82.815374 
Loop time of 1464.28 on 1 procs for 50000 steps with 8000 atoms

Pair  time (%) = 1323.28 (90.3711)
Neigh time (%) = 99.713 (6.80971)
Comm  time (%) = 8.65496 (0.591074)
Outpt time (%) = 0.626574 (0.0427906)
Other time (%) = 31.9987 (2.18529)

Nlocal:    8000 ave 8000 max 8000 min
Histogram: 1 0 0 0 0 0 0 0 0 0
Nghost:    9098 ave 9098 max 9098 min
Histogram: 1 0 0 0 0 0 0 0 0 0
Neighs:    291058 ave 291058 max 291058 min
Histogram: 1 0 0 0 0 0 0 0 0 0

Total # of neighbors = 291058
Ave neighs/atom = 36.3822
Neighbor list builds = 5000
Dangerous builds = 0
unfix		1

# Melt half the system
region  liquid block INF INF INF INF INF ${nzhalf}
region  liquid block INF INF INF INF INF 10
group	liquid_group region liquid
4054 atoms in group liquid_group

# Heat up one side to Tmelt to make sure it is melted
fix 2 liquid_group npt temp ${Tmelt} ${Tmelt} 1 z 0 0 10 drag 1.0
fix 2 liquid_group npt temp 2000 ${Tmelt} 1 z 0 0 10 drag 1.0
fix 2 liquid_group npt temp 2000 2000 1 z 0 0 10 drag 1.0
run		${eqsteps}
run		50000
Memory usage per processor = 5.95825 Mbytes
Step Temp TotEng PotEng Press Pxx Pyy Pzz Lx Ly Lz 
   50000    1088.7219   -24760.387   -25886.073   -255.55301   -585.79369   -245.54633    64.680984    41.407687    41.407687    82.815374 
   50100    1073.6141   -24757.991   -25868.057    177.94542     316.9246    85.693228    131.21842    41.407687    41.407687    82.815469 
   50200    1076.1476   -24752.166    -25864.85    390.80148   -71.645751    724.09218    519.95802    41.407687    41.407687    82.815702 
   50300    1091.4395   -24746.226   -25874.722    195.34321   -136.73982    524.32351    198.44593    41.407687    41.407687    82.816128 
   50400    1083.7161   -24740.645   -25861.156    481.04983    117.25932    676.05391    649.83626    41.407687    41.407687     82.81671 
   50500    1092.0067   -24734.596   -25863.679    517.52822    292.63153    870.35231    389.60083    41.407687    41.407687    82.817634 
   50600    1090.5747   -24728.085   -25855.687    656.11156    465.29553    607.61091    895.42825    41.407687    41.407687    82.818911 
   50700    1093.1595    -24721.35   -25851.625    805.31216    560.06544    1216.5366    639.33449    41.407687    41.407687    82.820643 
   50800    1098.1441    -24714.53   -25849.958    846.92796    573.26027    1034.9652    932.55844    41.407687    41.407687    82.822737 
   50900    1095.6662   -24707.583   -25840.449    1167.3434    1202.8963    1107.6593    1191.4745    41.407687    41.407687    82.825277 
   51000    1104.0169   -24700.584   -25842.084    1088.1975    842.50653    1239.7021    1182.3837    41.407687    41.407687    82.828288 
   51100    1107.6251   -24693.488   -25838.719    1277.9649    1468.2218    1203.0318    1162.6411    41.407687    41.407687    82.831784 
   51200    1112.6713   -24686.403   -25836.851    1264.1229    1318.6916    1527.5045    946.17263    41.407687    41.407687     82.83592 
   51300    1114.0707   -24679.215    -25831.11    1460.4515    1902.2437    1387.8397    1091.2712    41.407687    41.407687    82.840637 
   51400    1127.0504   -24672.037   -25837.353    1305.2048    1305.8588    1396.6008    1213.1549    41.407687    41.407687    82.845946 
   51500    1110.5152   -24664.811    -25813.03    1903.0043    1848.4851    2210.8168     1649.711    41.407687    41.407687    82.852007 
   51600    1113.6858   -24657.536   -25809.034    2000.5183    2247.8755    1697.3631    2056.3164    41.407687    41.407687    82.858919 
   51700     1117.917   -24650.225   -25806.097    2047.4431    1922.0836    2135.7983    2084.4476    41.407687    41.407687    82.866787 
   51800    1130.5148   -24642.916   -25811.814    1931.2397    1475.9929    2294.6256    2023.1005    41.407687    41.407687    82.875553 
   51900    1129.2101   -24635.533   -25803.082    2171.7259    1964.7271    2019.8984    2530.5522    41.407687    41.407687    82.885308 
   52000    1136.8218    -24628.16   -25803.579    2111.5387    2142.5424     2072.754    2119.3196    41.407687    41.407687    82.896156 
   52100    1146.5951   -24620.771   -25806.295    1930.8776    1487.6197    2048.0582    2256.9549    41.407687    41.407687    82.908044 
   52200    1143.9882   -24613.313   -25796.142     2247.901    1862.5986    2387.2013    2493.9031    41.407687    41.407687    82.920958 
   52300    1141.9093   -24605.872   -25786.551    2382.9265    2470.9704    1688.1994    2989.6096    41.407687    41.407687    82.934923 
   52400    1142.2125   -24598.382   -25779.375    2434.8606     2418.261    2558.4807    2327.8402    41.407687    41.407687    82.950078 
   52500    1148.4206   -24590.858   -25778.269    2335.9457    2385.0877    2241.4052    2381.3442    41.407687    41.407687     82.96622 
   52600     1164.869   -24583.328   -25787.747    2123.2799    2010.3407    2226.3499    2133.1491    41.407687    41.407687    82.983274 
   52700    1153.8628   -24575.759   -25768.798    2478.1212    2165.8497    2921.3499     2347.164    41.407687    41.407687    83.001236 
   52800    1157.9392   -24568.239   -25765.493    2468.4849    2712.1296    2326.6792    2366.6458    41.407687    41.407687    83.020119 
   52900    1156.7763   -24560.651   -25756.702     2608.654    2098.2096    2832.0774     2895.675    41.407687    41.407687      83.0399 
   53000    1150.3455   -24553.099   -25742.501    2891.2148    2955.2134    2955.3082    2763.1228    41.407687    41.407687    83.060652 
   53100    1174.5279   -24545.483   -25759.889    2282.3884    2205.1638    2203.6974    2438.3041    41.407687    41.407687    83.082346 
   53200    1167.2497   -24537.827   -25744.707    2511.5849    2392.3128    2643.5873    2498.8545    41.407687    41.407687    83.104879 
   53300    1172.6647   -24530.162   -25742.641    2375.7885    2499.2258    2456.2493    2171.8903    41.407687    41.407687    83.128109 
   53400    1170.7889   -24522.501    -25733.04    2597.4263    2853.5692    2371.9226     2566.787    41.407687    41.407687    83.151941 
   53500    1178.5417   -24514.795   -25733.351     2451.764    2600.9951    2847.6406    1906.6564    41.407687    41.407687    83.176423 
   53600    1179.2256   -24507.055   -25726.317    2439.2127    2659.9771    2460.0994    2197.5618    41.407687    41.407687    83.201277 
   53700    1180.3667   -24499.315   -25719.757    2346.3774    1945.8938    3179.1619    1914.0765    41.407687    41.407687    83.226598 
   53800    1188.0428   -24491.587   -25719.966    2235.6678    2104.8148    2907.5106    1694.6781    41.407687    41.407687    83.252384 
   53900    1185.7436   -24483.802   -25709.804    2344.3917    2384.4219    2552.2121    2096.5411    41.407687    41.407687     83.27855 
   54000    1186.5917   -24475.996   -25702.875    2425.2187    2568.6758    3024.9072    1682.0732    41.407687    41.407687     83.30513 
   54100    1203.5965   -24468.203   -25712.664    2114.5151    2361.3614    1873.3466    2108.8372    41.407687    41.407687    83.331987 
   54200    1205.5158   -24460.366   -25706.811    1919.6329    2110.1046    2055.6232     1593.171    41.407687    41.407687    83.359154 
   54300    1200.4301   -24452.521   -25693.708    2060.3322    1923.0425    2567.1564    1690.7976    41.407687    41.407687    83.386456 
   54400    1204.5155   -24444.683   -25690.094    2130.3644    2145.5131    2784.7409    1460.8391    41.407687    41.407687    83.413949 
   54500    1210.5808   -24436.795   -25688.477    2057.0163     1894.809    2301.9892    1974.2508    41.407687    41.407687    83.441482 
   54600    1220.7173     -24428.9   -25691.063    1737.9842    1356.5051    2548.4667    1308.9809    41.407687    41.407687    83.469167 
   54700    1215.5773   -24420.907   -25677.755    1967.7119    2106.1269    2084.0629    1712.9459    41.407687    41.407687    83.496814 
[...]
  336300    1016.8314   -24515.773   -25567.128   -106.52629   -322.38777    384.55894   -381.75004    41.109193    41.109193    85.274517 
  336400    1006.9971   -24515.781   -25556.968    718.41723    1161.5143    831.63573    162.10168    41.107753    41.107753    85.190694 
  336500    1016.5847   -24515.767   -25566.866    1029.7356    1201.3933    1220.5918    667.22181    41.106954    41.106954    85.126361 
  336600    1015.5026   -24515.766   -25565.747    892.68233    1199.5532    835.54315    642.95061    41.106849    41.106849    85.133168 
  336700    1007.2205    -24515.83   -25557.248    621.32731    795.10761    642.47596    426.39837    41.107194    41.107194    85.218603 
  336800    1007.6559   -24515.838   -25557.705    -159.0908    526.16136   -381.79775   -621.63602    41.107731    41.107731    85.333571 
  336900    998.17719   -24515.812   -25547.879   -484.19547   -738.92681   -1428.3574    714.69777    41.108146    41.108146    85.391869 
  337000    1003.7308   -24515.809   -25553.619   -963.09121   -708.21866   -1321.7575   -859.29745    41.108098    41.108098    85.453875 
  337100    1005.5937   -24515.819   -25555.555   -1149.9493   -1064.3931   -1211.6069    -1173.848    41.107536    41.107536    85.451497 
  337200    996.46882   -24515.899     -25546.2   -119.52555    220.81436   -429.23359   -150.15742    41.106544    41.106544    85.364697 
  337300    1009.9356   -24515.941   -25560.166    129.71725    618.97405   -34.013144   -195.80916    41.105599    41.105599    85.244655 
  337400    1021.7511   -24515.903   -25572.345    706.08228    168.62375    1404.4552    545.16788     41.10499     41.10499    85.138158 
  337500    1008.3194   -24515.878   -25558.432    1277.6145    1204.2012    1493.4189    1135.2235    41.104965    41.104965    85.122573 
  337600    1027.2435   -24515.913   -25578.033    132.43185    337.32074   -145.17045    205.14525    41.105491    41.105491    85.182912 
  337700    1014.0457   -24515.978   -25564.452    18.737416   -228.31884   -520.39158    804.92267    41.106092    41.106092    85.271239 
  337800    1006.1941   -24515.971   -25556.327   -618.44425   -572.57123   -615.95178   -666.80974    41.106456    41.106456    85.391603 
  337900    1005.3379   -24515.933   -25555.404   -1145.5035   -2050.9063   -861.63216   -523.97211    41.106339    41.106339    85.445536 
  338000    1010.4069    -24515.95   -25560.662   -978.84521    -1420.693   -695.59939   -820.24319    41.105561    41.105561    85.432107 
  338100    1019.2028   -24516.022   -25569.828     -730.571   -599.74776   -660.54655    -931.4187    41.104389    41.104389    85.346501 
  338200     1016.334   -24516.012   -25566.852    276.40839    225.18055   -173.30736    777.35197    41.103236    41.103236    85.236771 
  338300     1008.909   -24515.983   -25559.146    535.30437    693.26839    18.966128    893.67859    41.102373    41.102373    85.210978 
  338400    999.12932   -24515.985   -25549.037    744.71274    877.31307    951.95929    404.86586     41.10194     41.10194    85.239386 
  338500     1019.037   -24516.006   -25569.641   -18.862371   -535.56119     318.0497    160.92438    41.101837    41.101837     85.28474 
  338600    1013.4689   -24515.998   -25563.876   -222.03983   -260.23857    303.15726   -709.03819    41.101765    41.101765    85.333835 
  338700    1034.1027   -24516.022   -25585.234   -622.22835    -551.3556   -10.489569   -1304.8399    41.101745    41.101745    85.320278 
  338800    1026.1925   -24516.031   -25577.065    195.55665    347.04787   -515.09054    754.71261    41.101816    41.101816    85.238109 
  338900    1008.4514   -24516.002   -25558.692    562.54932    763.51346    861.50804    62.626446    41.102036    41.102036    85.217864 
  339000    1015.9126   -24516.008   -25566.412    411.58118    885.93248    622.61918   -273.80812    41.102426    41.102426    85.213753 
  339100    1023.4683   -24516.013    -25574.23     433.5374    176.42533    692.50379    431.68309    41.102975    41.102975    85.207573 
  339200    1006.7982    -24516.01   -25556.991    367.27314      276.844    400.93423     424.0412    41.103685    41.103685    85.221262 
  339300     1018.665   -24516.017   -25569.267    4.3974599    -497.0336      152.792    357.43398     41.10447     41.10447    85.244661 
  339400    1031.4221   -24516.028   -25582.469   -375.54402   -209.60687    363.39203   -1280.4172    41.105167    41.105167    85.263186 
  339500    1012.2535    -24516.02   -25562.642    327.58284    770.27567    235.49196   -23.019113     41.10584     41.10584    85.232855 
  339600    1019.8583   -24516.031   -25570.516    480.98079    804.72851    464.98026    173.23361    41.106514    41.106514    85.196874 
  339700    1019.5356    -24516.03    -25570.18    585.32211    1122.2184    553.08836    80.659531    41.107343    41.107343    85.160984 
  339800    1021.2017    -24516.04   -25571.913    519.60215   -136.10681    774.03119    920.88206    41.108384    41.108384    85.163258 
  339900    1015.8842    -24516.05   -25566.425    315.86073    204.85611    498.96049    243.76559    41.109562    41.109562    85.221123 
  340000    1006.7837   -24516.052   -25557.018    186.00502    595.97712   -35.705682   -2.2563859    41.110747    41.110747    85.278092 
  340100    1027.3073   -24516.081   -25578.267   -480.25153   -794.58932    272.06607   -918.23133    41.111803    41.111803    85.270495 
  340200    1021.2749   -24516.061    -25572.01    88.332408    130.33499   -88.321143    222.98337    41.112577    41.112577    85.201583 
  340300    1020.6094   -24516.069    -25571.33    381.38554    1065.6742    164.02993   -85.547513    41.113318    41.113318    85.170036 
  340400    1029.0565   -24516.065    -25580.06    292.45878    345.24741    301.68939    230.43954    41.114269    41.114269    85.137985 
  340500    1027.1459   -24516.073   -25578.092    505.24207    248.06596    478.07427    789.58597    41.115346    41.115346    85.138894 
  340600     1023.414    -24516.08    -25574.24    150.95137   -104.16574    208.74183    348.27801    41.116499    41.116499    85.182395 
  340700    1003.7925   -24516.079   -25553.952    169.16512    801.88631   -109.03247   -185.35846    41.117582    41.117582    85.241851 
  340800    1016.0466   -24516.067    -25566.61   -396.22462   -448.18082   -458.86952   -281.62351    41.118498    41.118498    85.263607 
  340900     1020.801   -24516.077   -25571.536    -267.5192   -194.26889   -941.10441    332.81569    41.119068    41.119068    85.244492 
  341000    1008.9972   -24516.076   -25559.331   -16.368159    342.55748   -479.12075    87.458794    41.119331    41.119331    85.253395 
  341100    1021.0712   -24516.076   -25571.815   -549.06303   -88.665534   -570.72652   -987.79704    41.119357    41.119357    85.277272 
  341200    1017.1587   -24516.101   -25567.794   -150.26332     430.4575   -206.73242   -674.51503    41.119274    41.119274    85.232949 
  341300    1021.8238   -24516.118   -25572.635    411.94648    148.66304    853.09005    234.08635      41.1193      41.1193    85.152725 
  341400    1023.4909   -24516.112   -25574.352    771.04697    630.62563    1292.4418    390.07344    41.119601    41.119601    85.088769 
  341500    1022.7209     -24516.1   -25573.544    1089.3129    948.43469    1916.5942    402.90986    41.120342    41.120342    85.062312 
  341600    1030.6889   -24516.122   -25581.805    551.17361    420.29508    901.73586    331.48989    41.121607    41.121607    85.069724 
  341700     1015.135    -24516.13   -25565.731    527.30593    490.05875    848.43477    243.42426    41.123143    41.123143    85.118159 
  341800    1021.0372   -24516.122   -25571.825   -114.05221   -174.25207     -93.2028   -74.701769    41.124716    41.124716    85.167321 
  341900    1020.6841   -24516.128   -25571.467   -222.37433   -272.83274   -352.26365   -42.026596    41.126079    41.126079    85.194184 
  342000     1028.809   -24516.125   -25579.864   -586.54427   -926.07611   -531.57279   -301.98391    41.127148    41.127148    85.209246 
  342100    1010.9581   -24516.133   -25561.415     114.9823    378.21942   -741.90329    708.63077     41.12789     41.12789    85.171664 
  342200    1019.4554   -24516.124   -25570.192   -95.666794   -384.79867   -679.12127    776.91956    41.128402    41.128402    85.145912 
  342300      1014.35   -24516.134   -25564.923     6.238479    9.8374686   -561.65976    570.53772    41.128631    41.128631    85.170042 
  342400     1015.808   -24516.141   -25566.437   -247.30291   -449.24214   -394.11692    101.45032    41.128638    41.128638    85.221431 
  342500    1018.9291   -24516.133   -25569.656   -629.11343   -1413.8066   -493.39493    19.861235    41.128411    41.128411    85.253495 
  342600    1023.3748   -24516.135   -25574.255   -546.40584   -1167.2043   -148.25878   -323.75444    41.127829    41.127829    85.247734 
  342700     1022.882   -24516.149    -25573.76   -601.44015   -458.79428   -945.91609   -399.61008    41.126959    41.126959    85.213581 
  342800    1030.2563   -24516.154   -25581.389    131.32048    564.27748   -596.81783    426.50179    41.125944    41.125944    85.167186 
  342900     1023.992   -24516.153   -25574.912    -14.19659    193.69833   -128.30868   -107.97942    41.125124    41.125124    85.144562 
  343000     1017.152    -24516.15   -25567.837     209.8957    79.946683   -378.71894    928.45937    41.124596    41.124596    85.143318 
  343100    1018.9376   -24516.154   -25569.686   -35.901613    912.68313    263.11359   -1283.5016    41.124177    41.124177    85.200815 
  343200    1025.7984   -24516.152   -25576.778   -8.2663698    519.88552   -421.52579   -123.15884     41.12393     41.12393    85.189558 
  343300    1019.3117    -24516.15    -25570.07    83.533406   -279.02178    27.573128    502.04887    41.123782    41.123782    85.167784 
  343400     1017.304   -24516.157       -25568     231.0199   -279.77177    677.03427    295.79721    41.123652    41.123652    85.186426 
  343500    1018.6475   -24516.162   -25569.394   -329.56459   -283.53362    -140.1582   -565.00194    41.123483    41.123483    85.238607 
  343600    1022.4047   -24516.159   -25573.277   -338.85906   -455.88249    -525.6661   -35.028587    41.123169    41.123169    85.246403 
  343700    1015.2303   -24516.165   -25565.864   -14.955861    355.39047   -230.22105   -170.03701    41.122765    41.122765    85.220414 
  343800    1020.0107   -24516.168    -25570.81  -0.18727812    907.37791   -673.32274     -234.617    41.122418    41.122418    85.180139 
  343900    1016.6404   -24516.159   -25567.316    306.53593    764.37773    702.09143   -546.86139    41.122217    41.122217    85.154918 
  344000    1017.0974   -24516.166   -25567.795    315.15507   -499.57047     197.8412    1247.1945    41.122202    41.122202    85.146951 
  344100    1034.7872   -24516.219   -25586.139   -624.27424   -838.03899   -1027.1849   -7.5988325    41.122131    41.122131      85.2212 
  344200    1014.8062   -24516.234   -25565.495   -725.62018   -203.74491   -1773.0434    -200.0722     41.12181     41.12181    85.313964 
  344300    1031.1508   -24516.199    -25582.36   -1595.3036   -1535.1126   -1774.0402   -1476.7579    41.120999    41.120999    85.376597 
  344400    1014.7067   -24516.242     -25565.4   -750.52604   -484.75732   -708.83937   -1057.9814    41.119602    41.119602    85.335118 
  344500    1022.2621   -24516.276   -25573.246   -200.50501   -825.54179   -300.60723      524.634    41.118092    41.118092    85.231965 
  344600    1023.6564   -24516.247   -25574.658    261.78013   -1175.1681    194.66642    1765.8421    41.116547    41.116547    85.169902 
  344700      1027.25    -24516.29   -25578.417   -169.19486   -1099.2477    702.19804   -110.53492    41.115059    41.115059    85.228236 
  344800    1011.4573   -24516.279   -25562.077   -263.17037   -539.12427   -475.37633     224.9895    41.113747    41.113747    85.300992 
  344900    1022.9447   -24516.278   -25573.953   -812.82691   -1223.9075   -1098.2459   -116.32728     41.11238     41.11238    85.352691 
  345000    1021.8731   -24516.281   -25572.849   -952.06869   -1510.2345   -1207.3383    -138.6332    41.110704    41.110704    85.368725 
  345100    1023.0265   -24516.301   -25574.061   -1099.0007   -823.46435   -1347.2099   -1126.3279    41.108557    41.108557    85.365341 
  345200    1011.9293   -24516.349   -25562.635   -254.73438   -733.86423    390.65462   -420.99355    41.106189    41.106189     85.29873 
  345300    1019.1011   -24516.353   -25570.055    397.91653   -207.95416   -91.978523    1493.6823    41.103985    41.103985    85.204632 
  345400    1018.1121   -24516.358   -25569.037    443.67789   -399.81905    794.66413     936.1886    41.102078    41.102078    85.210975 
  345500    1030.0189   -24516.371   -25581.361   -412.98208   -1044.0015   -335.46096    140.51619    41.100523    41.100523    85.290306 
  345600    1027.2835   -24516.387   -25578.549   -966.38525   -447.38145   -1857.7662   -594.00814    41.098986    41.098986    85.368146 
  345700    1012.6968   -24516.396   -25563.476   -815.89477   -1169.8349   -1624.4209     346.5715    41.097226    41.097226    85.421881 
  345800    1031.8911   -24516.406   -25583.331   -1573.3676   -1676.0713   -1872.2059   -1171.8256    41.095124    41.095124    85.471492 
  345900    1017.5664   -24516.421   -25568.536   -913.57792   -976.09814   -920.81303    -843.8226    41.092709    41.092709    85.457863 
  346000    1025.7875   -24516.479   -25577.094   -496.44002   -924.45317   -111.74167    -453.1252    41.090298    41.090298    85.381522 
  346100    1021.6831   -24516.481   -25572.852    425.72804    153.23243    975.05552    148.89617    41.088185    41.088185    85.290992 
  346200    1029.7379   -24516.452   -25581.151    587.74654   -368.00441    799.41039    1331.8337    41.086632    41.086632    85.225614 
  346300    1026.6131   -24516.498   -25577.967    362.10966    239.08993   -290.82307    1138.0621    41.085511    41.085511    85.265952 
  346400    1018.7977   -24516.589   -25569.977   -430.11558    110.48316   -1035.2303   -365.59965    41.084587    41.084587    85.397738 
  346500    1017.1714   -24516.507   -25568.213   -878.19244   -468.94362   -819.78261   -1345.8511    41.083555    41.083555    85.476136 
  346600    1020.8333   -24516.555   -25572.048   -632.28248   -954.61914   -321.36423   -620.86407    41.082382    41.082382    85.431595 
  346700    1011.0531   -24516.541   -25561.921    179.18452     268.5123   -682.38617    951.42744     41.08115     41.08115    85.349126 
  346800    1017.2847   -24516.536    -25568.36    165.58876    456.92544   -236.08615    275.92698    41.080058    41.080058    85.346783 
  346900    1020.2924   -24516.547    -25571.48   -336.07192    -288.3268   -813.78844    93.899478    41.079092    41.079092    85.385758 
  347000    1025.4844   -24516.552   -25576.854   -652.71941   -1101.9925   -715.89245   -140.27326    41.078083    41.078083    85.425584 
  347100    1006.2612   -24516.535   -25556.961   -129.82618   -802.40437    231.92568    181.00014    41.076903    41.076903    85.431602 
  347200    1015.6731   -24516.558   -25566.715   -258.63386   -255.34267   -425.47767   -95.081231    41.075661    41.075661    85.400347 
  347300    1026.4902   -24516.561   -25577.902   -145.69863    48.492754   -593.65633     108.0677    41.074434    41.074434    85.369383 
  347400    1010.1407   -24516.553    -25560.99    599.89257    119.93483    1131.8637    547.87919    41.073387    41.073387     85.33824 
  347500    1017.3831   -24516.557   -25568.482    804.55685    921.54955    1060.7169    431.40411     41.07271     41.07271    85.307113 
  347600    1029.6939   -24516.555   -25581.209     356.1756    746.38081    343.12872   -20.982714    41.072406    41.072406    85.304284 
  347700    1020.1476   -24516.562   -25571.346    469.95382    674.14105    625.64948    110.07094    41.072348    41.072348    85.324842 
  347800    1011.7302   -24516.571   -25562.652    363.68825    141.38234    344.54358    605.13882    41.072493    41.072493     85.37079 
  347900    1022.7823   -24516.576   -25574.084    -211.6081     91.99474   -552.97351   -173.84554    41.072727    41.072727    85.427126 
  348000     1019.908   -24516.569   -25571.105   -483.76052    -913.5189    77.928132   -615.69081    41.072927    41.072927    85.448341 
  348100    1015.6946   -24516.586   -25566.766   -161.29938   -472.38788    254.00273     -265.513    41.072988    41.072988    85.405119 
  348200     1022.502   -24516.643   -25573.861    298.24041    1043.1998   -142.15711   -6.3214487     41.07304     41.07304     85.31482 
  348300    1028.3978   -24516.596    -25579.91    690.83726    299.21552    877.14026    896.15599    41.073354    41.073354    85.236909 
  348400    1026.5967   -24516.622   -25578.074     786.2532    1253.2793    238.40425    867.07601     41.07396     41.07396    85.255132 
  348500    1022.8193   -24516.612   -25574.158    274.29121     571.5897    876.57775   -625.29382    41.074905    41.074905    85.317445 
  348600    1025.1844   -24516.635   -25576.627   -313.39301    355.09606   -459.65579   -835.61931    41.076031    41.076031    85.360059 
  348700    1028.0246   -24516.617   -25579.545   -378.55478   -295.28295    701.18626   -1541.5676     41.07703     41.07703    85.387589 
  348800     1024.921   -24516.668   -25576.387    96.775563    639.10729    257.76433   -606.54492    41.077985    41.077985    85.325129 
  348900     1024.755   -24516.652     -25576.2    690.92789   -23.633294    1563.7769       532.64    41.079052    41.079052    85.245136 
  349000    1033.1001   -24516.645   -25584.821    549.55801    936.72637    1100.2403   -388.29264    41.080424    41.080424    85.216991 
  349100    1022.8551   -24516.655   -25574.238    796.91514    555.04302    1057.8692    777.83318    41.082146    41.082146    85.200386 
  349200    1023.9004    -24516.67   -25575.334    680.09406    1905.2559    636.67316   -501.64683    41.084093    41.084093     85.22286 
  349300    1016.7614   -24516.704   -25567.986    418.55598    333.34193    1035.7887   -113.46266    41.086191    41.086191    85.277137 
  349400    1009.5089   -24516.689   -25560.473   -25.377401    320.24326     76.19413    -472.5696    41.088164    41.088164    85.340067 
  349500    1027.5812   -24516.696   -25579.165   -482.12801    -139.9691   -282.80946   -1023.6055     41.08987     41.08987     85.35672 
  349600    1016.3379   -24516.687   -25567.532   -239.61218   -319.19278   -364.40341   -35.240358    41.091268    41.091268    85.343242 
  349700    1016.9997   -24516.693   -25568.221    151.50225     396.7427    24.050978    33.713066    41.092341    41.092341    85.327844 
  349800    1025.4573   -24516.701   -25576.974      -41.933    385.30597   -283.85927    -227.2457    41.093297    41.093297    85.289879 
  349900    1017.4032   -24516.693   -25568.639    484.53047    635.96945   -211.44739    1029.0693    41.094201    41.094201    85.260565 
  350000    1032.4377   -24516.715   -25584.205   -199.91871    439.10507    -909.8783   -128.98289    41.095038    41.095038    85.296396 
Loop time of 5701.37 on 1 procs for 200000 steps with 8000 atoms

Pair  time (%) = 5151.35 (90.3529)
Neigh time (%) = 394.069 (6.91183)
Comm  time (%) = 32.3747 (0.567841)
Outpt time (%) = 2.63215 (0.046167)
Other time (%) = 120.94 (2.12125)

Nlocal:    8000 ave 8000 max 8000 min
Histogram: 1 0 0 0 0 0 0 0 0 0
Nghost:    8378 ave 8378 max 8378 min
Histogram: 1 0 0 0 0 0 0 0 0 0
Neighs:    283406 ave 283406 max 283406 min
Histogram: 1 0 0 0 0 0 0 0 0 0

Total # of neighbors = 283406
Ave neighs/atom = 35.4258
Neighbor list builds = 20000
Dangerous builds = 0
unfix		4
