LAMMPS (13 Jan 2014)
Lattice spacing in x,y,z = 2.87 2.87 2.87
Created orthogonal box = (0 0 0) to (28.7 28.7 57.4)
  1 by 1 by 1 MPI processor grid
Created 8000 atoms
Setting up run ...
Memory usage per processor = 9.58073 Mbytes
Step Temp TotEng PotEng Press Pxx Pyy Pzz Lx Ly Lz 
       0       2046.8    48645.577    46529.285    6875512.8    6875078.3    6875033.4    6876426.7         28.7         28.7         57.4 
     100    940.65714    28055.487    27082.893    4864882.5    4866241.2    4865281.9    4863124.5    29.806168    29.806168    59.612337 
     200    854.64888    14982.735     14099.07    3651459.5    3651285.6    3651719.5    3651373.3    30.708802    30.708802    61.417604 
     300    780.91192    5692.9131    4885.4877    2825105.2    2825840.1    2824501.4    2824974.2    31.505685    31.505685    63.011371 
     400     734.0426   -1225.2544   -1984.2192    2229029.3    2229062.5    2229245.9    2228779.4    32.229863    32.229863    64.459725 
     500    685.78796   -6505.3044   -7214.3762      1784741    1784802.6      1785077    1784343.6    32.896158    32.896158    65.792315 
     600    649.21014   -10601.286   -11272.538    1445777.5      1446157    1445665.4    1445510.2    33.513594    33.513594    67.027189 
     700    628.30654   -13816.013   -14465.651    1182067.2      1181985    1182759.3    1181457.4    34.088403    34.088403    68.176805 
     800    579.24775    -16360.84   -16959.754    974592.49    974714.96    974750.38    974312.13    34.625208    34.625208    69.250416 
     900    560.64148   -18388.888   -18968.564    808381.53    808484.63    808347.39    808312.56    35.127629    35.127629    70.255258 
    1000    532.08533   -20013.158   -20563.309    674310.67    674411.06    674087.28    674433.66    35.598545    35.598545     71.19709 
    1100    516.35882   -21318.819   -21852.709    564758.34    564917.62    564915.64    564441.75    36.040348    36.040348    72.080696 
    1200    493.44053   -22370.592   -22880.786       474806    475015.95    474607.28    474794.78     36.45499     36.45499     72.90998 
    1300    474.69498   -23218.915   -23709.727    400218.56    400132.02    400160.49    400363.15     36.84418     36.84418    73.688361 
    1400    469.33189   -23902.931   -24388.198     337763.4    337909.84     337865.2    337515.16    37.209303    37.209303    74.418606 
    1500    450.06209   -24454.172   -24919.515    285580.03    285524.57    285800.58    285414.95    37.551637    37.551637    75.103274 
    1600    433.99249     -24897.1   -25345.827    241604.21    241460.83    241556.68    241795.12    37.872186    37.872186    75.744371 
    1700     426.2746   -25252.132   -25692.879    204184.35    204342.53    204066.35    204144.17    38.171995    38.171995    76.343989 
    1800    415.23053   -25535.131   -25964.459    172417.46    172517.79    172411.54    172323.07    38.451771    38.451771    76.903543 
    1900    410.36854   -25759.424   -26183.725    145171.96    145347.96    145034.93       145133    38.712315    38.712315     77.42463 
    2000    400.77065   -25935.763   -26350.141    121985.87    122153.65     121863.8    121940.16    38.954252    38.954252    77.908505 
    2100    394.27037   -26073.072   -26480.729    102038.78    102222.35    101817.57    102076.43    39.178164    39.178164    78.356329 
    2200     387.5122   -26178.575   -26579.244    84941.808    85116.247    84759.804    84949.374    39.384571    39.384571    78.769141 
    2300    382.41169    -26258.46   -26653.855    70271.091    70436.358    70217.742    70159.173    39.573973    39.573973    79.147946 
    2400     373.2979   -26317.774   -26703.746    57759.632    57865.817    57670.462    57742.618    39.746843    39.746843    79.493685 
    2500    372.82821   -26360.598   -26746.085    46854.373    47117.454    46560.789    46884.875    39.903647    39.903647    79.807293 
    2600    366.81886   -26390.519   -26769.792     37659.94    37839.718    37367.508    37772.595    40.044723    40.044723    80.089446 
    2700    369.88044   -26410.299   -26792.738    29677.257    29744.487    29533.024     29754.26    40.170578    40.170578    80.341155 
    2800     364.1913   -26422.344   -26798.901    23128.548    23300.914    23043.762    23040.969    40.281595    40.281595     80.56319 
    2900    363.66462   -26428.584   -26804.596     17525.95    17748.361     17465.56    17363.929     40.37824     40.37824    80.756481 
    3000    360.61311    -26430.64   -26803.496     12956.99    13107.773    12806.291    12956.905    40.461186    40.461186    80.922372 
    3100    357.26951   -26429.666   -26799.066    9288.4251    9353.7142    9104.9443    9406.6168    40.530883    40.530883    81.061767 
    3200    358.55774    -26426.67   -26797.402    6252.8094    6508.7918    6159.5603     6090.076    40.588132    40.588132    81.176263 
    3300    362.87843   -26422.358   -26797.557    3854.9022    4009.3492    3685.7809    3869.5766    40.633664    40.633664    81.267329 
    3400    362.66537   -26417.282    -26792.26     2158.295    2112.7187    2175.5841    2186.5821    40.668531    40.668531    81.337061 
    3500     361.1999   -26411.749   -26785.212    1064.8194    1193.8099    938.66114    1061.9872    40.693801    40.693801    81.387601 
    3600    370.94881   -26406.016    -26789.56    83.343663    87.200224     299.6469   -136.81614    40.710897    40.710897    81.421795 
    3700    368.99784   -26400.205   -26781.731   -223.51277   -169.21336   -183.20991   -318.11503    40.721296    40.721296    81.442593 
    3800    370.18186    -26394.34    -26777.09   -309.85478   -189.54319   -279.25565   -460.76549    40.726555    40.726555     81.45311 
    3900    374.39731   -26388.456   -26775.564   -352.49632   -108.43231   -402.67995   -546.37671    40.728281    40.728281    81.456562 
    4000    373.80562    -26382.57   -26769.067   -143.75433   -123.20963   -150.65178   -157.40159       40.728       40.728    81.456001 
    4100    372.76321   -26376.628   -26762.047    151.82363    211.34891    147.96544     96.15653    40.727051    40.727051    81.454102 
    4200    381.03647   -26370.642   -26764.615    156.29931    168.61982    80.731861    219.54625    40.726287    40.726287    81.452574 
    4300    387.60051   -26364.644   -26765.404    215.75531    85.473059     113.3711    448.42178    40.726293    40.726293    81.452586 
    4400    384.57059   -26358.609   -26756.237    447.25873    569.20101    554.70027    217.87491    40.727444    40.727444    81.454888 
    4500    392.26032   -26352.551   -26758.129     257.8644    200.74758    426.59212     146.2535    40.729859    40.729859    81.459718 
    4600    395.43027   -26346.487   -26755.343    241.00022    348.89541    306.24672    67.858541    40.733205    40.733205     81.46641 
    4700    394.01696     -26340.4   -26747.794    249.15817    240.58134    318.08951    188.80365    40.737069    40.737069    81.474138 
    4800    398.18722   -26334.275   -26745.981    132.79095     222.8943    91.356459    84.122095    40.741049    40.741049    81.482098 
    4900    406.00381   -26328.112     -26747.9    -60.95543   -67.240439   -12.270673   -103.35518    40.744784    40.744784    81.489568 
    5000    402.52575   -26321.936   -26738.128    70.155038    183.79512    360.48613   -333.81614    40.747953    40.747953    81.495907 
    5100    409.15539   -26315.718   -26738.765   -12.413013   -35.539883    100.00155    -101.7007    40.750591    40.750591    81.501181 
    5200    412.11087     -26309.5   -26735.603    -24.95171   -146.42395     134.9629   -63.394079    40.752802    40.752802    81.505604 
    5300    411.86582   -26303.241    -26729.09    88.359513    138.59276    258.41266   -131.92688    40.754664    40.754664    81.509328 
    5400    416.95239    -26296.96   -26728.068    35.091332    157.54336    116.89468   -169.16405    40.756303    40.756303    81.512606 
    5500    420.54531   -26290.651   -26725.475    108.90041     369.0238    27.894708   -70.217279    40.758094    40.758094    81.516188 
    5600    418.74735   -26284.317   -26717.282    210.51315    472.46897   -55.876884    214.94735    40.760235    40.760235    81.520471 
    5700    423.14717   -26277.957   -26715.471     180.3958    493.55224   -22.640811     70.27598    40.762688    40.762688    81.525377 
    5800    427.35745   -26271.572    -26713.44     111.8798    51.932865    181.26964    102.43688    40.765281    40.765281    81.530562 
    5900    434.25447   -26265.176   -26714.174    22.706525    142.36513    131.91112   -206.15667     40.76804     40.76804    81.536081 
    6000    432.01965   -26258.756   -26705.443    132.30248    384.12212     115.8783   -103.09297    40.771013    40.771013    81.542026 
    6100    435.89341   -26252.306   -26702.999    103.74694    101.39288    26.695119    183.15283    40.774111    40.774111    81.548222 
    6200    438.15347   -26245.837   -26698.867    69.645818    50.284303    316.42956   -157.77641    40.777091    40.777091    81.554182 
    6300    437.93997   -26239.336   -26692.145    150.37062    159.87772    224.87005    66.364102    40.779894    40.779894    81.559789 
    6400    441.61237   -26232.818   -26689.424    120.90893    40.704277      87.3609     234.6616    40.782618    40.782618    81.565237 
    6500    449.95706   -26226.278   -26691.512    16.823401    141.44653     28.58528    -119.5616    40.785194    40.785194    81.570389 
    6600    450.86212    -26219.73   -26685.899    40.957401    233.93015    37.917973   -148.97592    40.787576    40.787576    81.575153 
    6700     450.2768   -26213.133   -26678.697    119.97886    125.38805    258.16171    -23.61318    40.789886    40.789886    81.579772 
    6800    456.94092   -26206.547   -26679.002    76.905843     221.9474    1.8568733    6.9132596    40.792217    40.792217    81.584434 
    6900      464.115   -26199.895   -26679.768    -26.64526     250.5166   -337.71766    7.2652735    40.794564    40.794564    81.589128 
    7000    469.16139   -26193.267   -26678.357   -75.719264   -237.73964    43.325018   -32.743173     40.79693     40.79693     81.59386 
    7100    463.91647   -26186.602    -26666.27    167.56194    39.609338    203.58194    259.49453    40.799449    40.799449    81.598897 
    7200     472.5322   -26179.914    -26668.49   -23.116079    84.615449    10.632252   -164.59594    40.802198    40.802198    81.604395 
    7300    480.59476    -26173.21   -26670.122   -133.82924   -210.17879    104.43464   -295.74357    40.804949    40.804949    81.609898 
    7400    473.49141   -26166.478   -26656.045    126.40015     104.6247    13.615225    260.96052     40.80766     40.80766    81.615319 
    7500    477.55755   -26159.744   -26653.516    32.127588    227.20747    57.521246   -188.34595    40.810459    40.810459    81.620917 
    7600    481.86882   -26152.976   -26651.205    40.834691    90.879243    74.663111   -43.038281    40.813309    40.813309    81.626617 
    7700    485.15033   -26146.209   -26647.831    40.677228    164.57093     27.68749   -70.226734     40.81604     40.81604     81.63208 
    7800     485.9109     -26139.4   -26641.808    80.166415    161.69969    -93.11901    171.91856     40.81885     40.81885    81.637701 
    7900    488.53543   -26132.577   -26637.699    135.35616    276.61482    83.467847    45.985816    40.821595    40.821595    81.643189 
    8000    491.82387    -26125.76   -26634.282     99.34909    198.52109   -176.04496    275.57115    40.824328    40.824328    81.648656 
    8100    498.23491   -26118.908   -26634.059   -39.268032   -119.09709   -81.764053    83.057049    40.827137    40.827137    81.654273 
    8200    498.50149   -26112.027   -26627.454    113.23417     297.1935    52.331484   -9.8224709    40.829669    40.829669    81.659338 
    8300    506.13386   -26105.146   -26628.464   -31.878526   -6.0964432    -205.8383    116.29916     40.83214     40.83214    81.664279 
    8400    509.53169   -26098.245   -26625.076    13.636603    157.48818   -219.91479    103.33642    40.834594    40.834594    81.669187 
    8500    514.69684    -26091.33   -26623.502   -66.841237    45.170736   -207.10794   -38.586513     40.83714     40.83714    81.674279 
    8600    517.51411   -26084.411   -26619.496   -15.504146   -55.276739    -224.0539     232.8182    40.839891    40.839891    81.679782 
    8700    514.40388   -26077.462   -26609.331    70.324522    157.01713   -77.219707    131.17614    40.842861    40.842861    81.685721 
    8800    518.33754   -26070.481   -26606.417    47.235702    202.50516   -115.21374    54.415685    40.845908    40.845908    81.691816 
    8900    526.21196   -26063.514   -26607.592   -75.147772    27.133042   -331.52916    78.952802    40.849006    40.849006    81.698012 
    9000    528.97042   -26056.519   -26603.449   -72.250769   -2.3537942   -270.77664    56.378126    40.852057    40.852057    81.704115 
    9100    519.25148   -26049.514   -26586.395    304.14023    262.48013    377.90395     272.0366    40.855039    40.855039    81.710077 
    9200    533.29834   -26042.516   -26593.921    1.1833698    62.025519   -82.574015    24.098605    40.858068    40.858068    81.716136 
    9300    537.33605   -26035.479   -26591.059   -27.066615    100.03159   -147.63907   -33.592366    40.860963    40.860963    81.721926 
    9400    539.19357    -26028.44   -26585.941    4.5329115    88.224488     19.08319   -93.708944    40.863757    40.863757    81.727515 
    9500    544.43474   -26021.389   -26584.308   -80.591499   -169.93225    106.27253   -178.11477    40.866278    40.866278    81.732557 
    9600    545.16038   -26014.317   -26577.987     50.43173    36.744832   -86.349511    200.89987    40.868659    40.868659    81.737318 
    9700    551.64253   -26007.243   -26577.615   -77.028562    64.864666    -143.7465   -152.20385    40.871034    40.871034    81.742068 
    9800    550.37231   -26000.163   -26569.221    81.288846    401.94083    -89.56478   -68.509514    40.873354    40.873354    81.746709 
    9900    555.75677   -25993.049   -26567.675   -2.3452626   -211.86966    246.53747   -41.703602    40.875806    40.875806    81.751613 
   10000     558.7158   -25985.969   -26563.654    56.985169   -121.49056   -4.6329536    297.07902    40.878524    40.878524    81.757048 
   10100    559.17614   -25978.828   -26556.989    109.16173    108.50052    74.708313    144.27634    40.881521    40.881521    81.763042 
   10200    561.37933   -25971.719   -26552.159    108.51646    54.600396    15.456051    255.49292    40.884787    40.884787    81.769573 
   10300    560.23276   -25964.585   -26543.839    271.68566    383.20438   -90.988479    522.84108    40.888294    40.888294    81.776588 
   10400     568.6214   -25957.442    -26545.37     20.80758    20.371291    120.92573   -78.874277    40.891922    40.891922    81.783844 
   10500    573.44457   -25950.296    -26543.21   -14.040129   0.96446437   -127.62114    84.536284    40.895458    40.895458    81.790915 
   10600    575.31586   -25943.123   -26537.972    9.9643357    367.56093   -306.63078   -31.037139     40.89846     40.89846     81.79692 
   10700    577.74422   -25935.974   -26533.334    47.967392    154.36602    117.35108   -127.81492    40.901112    40.901112    81.802224 
   10800    583.77607   -25928.809   -26532.405    16.954965    155.87325   -88.731206   -16.277147    40.903606    40.903606    81.807212 
   10900    584.97474   -25921.644   -26526.479    110.51311    152.43539    104.02584    75.078116    40.906016    40.906016    81.812032 
   11000    591.10883   -25914.484   -26525.662    5.0151991    223.56572   -40.440165   -168.07995    40.908734    40.908734    81.817469 
   11100    581.90867   -25907.276   -26508.941    403.62609    18.230404    606.65887    585.98899    40.911646    40.911646    81.823293 
   11200    593.38381   -25900.101   -26513.631    111.69669    376.32794   -98.654358     57.41648    40.914859    40.914859    81.829717 
   11300    604.38904    -25892.91    -26517.82   -102.26887   -4.1080847   -63.507752   -239.19078    40.918181    40.918181    81.836361 
   11400    607.19889   -25885.726   -26513.541   -76.558949   -73.564351   -200.75773    44.645234    40.921404    40.921404    81.842809 
   11500    605.81934   -25878.524   -26504.912   -28.047177    23.645746   -74.344137    -33.44314    40.924563    40.924563    81.849126 
   11600    605.54951   -25871.311    -26497.42    66.807134   -60.281987     74.97072    185.73267    40.927286    40.927286    81.854573 
   11700     608.0431   -25864.118   -26492.805     132.5589    324.19478   -163.38774    236.86967        40.93        40.93        81.86 
   11800    613.01539   -25856.912   -26490.741    76.155911   -4.4681253    67.524738    165.41112    40.932354    40.932354    81.864708 
   11900    615.78641   -25849.716    -26486.41    153.24169    155.57405    20.881554    283.26946     40.93461     40.93461     81.86922 
   12000    624.89129   -25842.503    -26488.61    25.543349    231.68619    -428.2334    273.17726    40.937231    40.937231    81.874463 
   12100    630.53195     -25835.3   -26487.239   -41.934635   -311.82773   -249.35832    435.38214    40.940157    40.940157    81.880314 
   12200    631.02472   -25828.103   -26480.552    15.626214   -135.79813   -187.35917    370.03594    40.943163    40.943163    81.886326 
   12300    636.92776   -25820.902   -26479.455   -106.23451    10.567068   -112.88426   -216.38634    40.946417    40.946417    81.892833 
   12400    633.13349   -25813.695   -26468.324    102.59716    153.24949    406.71151   -252.16953    40.949642    40.949642    81.899285 
   12500    635.94248   -25806.505   -26464.039    77.605303    294.77579   -109.83494     47.87506     40.95317     40.95317     81.90634 
   12600    644.90291     -25799.3   -26466.098   -78.636522   -117.48915   -89.901945   -28.518473    40.956657    40.956657    81.913314 
   12700    642.38181   -25792.125   -26456.317    20.682564   -113.98942   -37.896814    213.93392    40.959799    40.959799    81.919597 
   12800      647.546   -25784.932   -26454.463   -44.443369   -343.93358   -1.8754173    212.47889    40.962663    40.962663    81.925325 
   12900    648.09344   -25777.739   -26447.836    73.159655   -216.74707    254.00058    182.22546    40.965494    40.965494    81.930988 
   13000    655.01847   -25770.561   -26447.818   -23.609327   -35.531884   -15.129995   -20.166101    40.968055    40.968055     81.93611 
   13100    653.49598   -25763.384   -26439.067    157.62911    196.64792    137.82973    138.40968    40.970527    40.970527    81.941054 
   13200    668.39407   -25756.212   -26447.299   -166.04491    13.338851   -383.39946   -128.07412    40.973229    40.973229    81.946458 
   13300    663.91187   -25749.069   -26435.522    14.225348   -145.06504     454.3841   -266.64301    40.976016    40.976016    81.952032 
   13400    665.80769   -25741.891   -26430.304    21.713327   -237.87831    292.11551    10.902776    40.978991    40.978991    81.957982 
   13500    667.76954   -25734.755   -26425.197    92.095102     170.7685   -145.88848    251.40529       40.982       40.982    81.964001 
   13600    670.56422   -25727.612   -26420.944    69.154984    331.03695    16.477983   -140.04998    40.985088    40.985088    81.970176 
   13700    677.06696   -25720.463   -26420.517    29.562089    103.23038    57.814742   -72.358858     40.98826     40.98826     81.97652 
   13800     687.5901   -25713.337   -26424.273   -137.84061    50.605131   -329.94057   -134.18637    40.991445    40.991445     81.98289 
   13900    679.57695   -25706.216   -26408.866     62.76003   -247.74893    394.70408    41.324945    40.994347    40.994347    81.988694 
   14000    679.59368   -25699.114   -26401.781    167.61608    224.72373    114.49016    163.63435    40.997278    40.997278    81.994556 
   14100    696.87839   -25692.044   -26412.583   -215.88064    -20.22616   -256.40059   -371.01517    41.000105    41.000105     82.00021 
   14200    686.64684    -25684.95    -26394.91    126.94139    151.42269    11.586848    217.81463    41.003013    41.003013    82.006026 
   14300    689.10566   -25677.885   -26390.388    161.03215   -151.01842    258.54799    375.56689     41.00599     41.00599    82.011979 
   14400    693.28293   -25670.804   -26387.625    126.97403    399.59166    302.12628   -320.79584    41.009073    41.009073    82.018145 
   14500    698.07645   -25663.745   -26385.523    40.957031   -87.406619    99.488662    110.78905    41.011722    41.011722    82.023445 
   14600     702.2799   -25656.736    -26382.86    68.631885   -40.804737    250.98566   -4.2852736    41.014287    41.014287    82.028574 
   14700    709.37285   -25649.691   -26383.149   -53.035479    38.948981   -250.76905    52.713633     41.01689     41.01689    82.033779 
   14800    712.83627   -25642.682    -26379.72   -22.639735   -351.74872    172.10648    111.72303    41.019209    41.019209    82.038418 
   14900    702.99723   -25635.677   -26362.542    318.36842    178.30705    586.69691    190.10131    41.021617    41.021617    82.043233 
   15000    713.63805   -25628.716   -26366.583    113.21165    193.34057    34.194397    112.09998    41.024618    41.024618    82.049237 
   15100    720.45119    -25621.73   -26366.642     78.11169    276.17368    74.739859   -116.57847    41.027911    41.027911    82.055822 
   15200    720.04605   -25614.803   -26359.296     92.91935   -32.329259    -107.0963    418.18361    41.031436    41.031436    82.062872 
   15300    718.17012   -25607.845   -26350.399    193.75521     224.7303   -1.8965299    358.43187    41.035147    41.035147    82.070293 
   15400    724.30992   -25600.942   -26349.843    88.700815    73.639529   -96.714029    289.17694    41.038692    41.038692    82.077384 
   15500    729.63203   -25594.041   -26348.446    33.899569    -104.5657   -373.42419    579.68859    41.042209    41.042209    82.084418 
   15600    730.80575   -25587.142    -26342.76    60.487489   -258.27685   -138.45959    578.19891     41.04545     41.04545      82.0909 
   15700    737.54715   -25580.285   -26342.874    -35.84976    105.65111   -392.47843    179.27805    41.048228    41.048228    82.096456 
   15800    731.80348   -25573.447   -26330.096    239.54058    347.21002    546.30999   -174.89828    41.050474    41.050474    82.100948 
   15900    739.34153   -25566.614   -26331.057    19.668744    115.83703   -67.040265    10.209473    41.052711    41.052711    82.105422 
   16000     741.0165   -25559.787   -26325.962    153.49883    164.05096    203.16852    93.277019      41.0547      41.0547    82.109401 
   16100    748.47561   -25553.021   -26326.909    61.865138    41.972598    384.84927   -241.22646    41.056863    41.056863    82.113726 
   16200    752.43875   -25546.246   -26324.232    62.653771   -73.684081   -83.434504     345.0799    41.059133    41.059133    82.118266 
   16300     751.7438   -25539.487   -26316.754      92.0323    434.10516   -136.52567   -21.482585    41.061467    41.061467    82.122935 
   16400    754.64234   -25532.774   -26313.038    274.90081    547.20933    182.88758    94.605531    41.064114    41.064114    82.128228 
   16500     755.3115    -25526.08   -26307.036    298.72882    513.75134   -58.245936    440.68106    41.067304    41.067304    82.134608 
   16600     753.7416   -25519.376   -26298.708     318.0638    510.14212    419.18706    24.862223      41.0712      41.0712    82.142399 
   16700    767.19083   -25512.736   -26305.974   -36.763068    137.41607   -456.60035    208.89508    41.075063    41.075063    82.150126 
   16800    772.59279   -25506.127   -26304.951   -145.55566   -37.729059   -229.97089   -168.96703    41.078704    41.078704    82.157408 
   16900    770.61138    -25499.49   -26296.265     10.37193   -301.67435    394.49331    -61.70317    41.082125    41.082125     82.16425 
   17000    778.87452   -25492.886   -26298.204   -171.08919   -79.616197    67.746744   -501.39812    41.085126    41.085126    82.170251 
   17100    772.66567    -25486.35   -26285.249    116.24336    44.531474    227.80962    76.388991    41.087274    41.087274    82.174548 
   17200    779.67943   -25479.817   -26285.968     -4.93328    333.54263    52.762273   -401.10475    41.089179    41.089179    82.178357 
   17300    794.58828   -25473.305   -26294.871   -257.66612   -109.45078     309.1249   -972.67246    41.091017    41.091017    82.182034 
   17400    785.29044   -25466.806   -26278.759    165.93871    202.65445    173.80417    121.35751    41.093015    41.093015    82.186029 
   17500    794.94782   -25460.374   -26282.312   -83.920949    32.200739    152.71746   -436.68104    41.095389    41.095389    82.190778 
   17600    792.40448   -25453.959   -26273.267    72.815705    716.23392   -20.548345   -477.23846    41.098197    41.098197    82.196394 
   17700    790.45753   -25447.547   -26264.842    213.63259    286.42787     328.0629    26.407014    41.101357    41.101357    82.202713 
   17800    802.20979   -25441.184   -26270.631   -77.285252   -396.41644    150.02375    14.536934    41.105001    41.105001    82.210003 
   17900    794.06128   -25434.834   -26255.855    115.39624    256.40998    348.94599   -259.16723    41.108931    41.108931    82.217862 
   18000    803.18988   -25428.519   -26258.979   -175.22689   -361.11222    123.88843   -288.45687    41.112526    41.112526    82.225052 
   18100    808.84398   -25422.228   -26258.534   -188.41313   -69.989962   -530.08714    34.837705    41.115482    41.115482    82.230964 
   18200    794.73795   -25415.987   -26237.708    274.46501   -156.45842    344.62488    635.22856    41.117414    41.117414    82.234828 
   18300    816.30338   -25409.749   -26253.767    -132.5804   -155.55929   -189.87701   -52.304914     41.11914     41.11914    82.238281 
   18400    816.12524   -25403.569   -26247.403   -60.176998    11.216816   -270.61335     78.86554    41.120444    41.120444    82.240888 
   18500    822.64812   -25397.391    -26247.97   -54.115532    13.932541    61.995832   -238.27497    41.121952    41.121952    82.243904 
   18600    814.68694    -25391.27   -26233.617    209.15042   -79.898898    444.21833    263.13184    41.123787    41.123787    82.247574 
   18700    819.47315   -25385.166   -26232.462    162.83362    175.50101   -179.54178    492.54162    41.126502    41.126502    82.253004 
   18800    818.26776   -25379.093   -26225.143    258.13079    81.731693   -326.60196    1019.2626    41.129949    41.129949    82.259898 
   18900    828.35638   -25373.033   -26229.514   -32.823831   -61.514303    59.754378   -96.711569     41.13401     41.13401    82.268019 
   19000    831.08757   -25367.044   -26226.349   -67.429852   -370.43102    211.82152   -43.680053    41.137928    41.137928    82.275856 
   19100    837.07282   -25361.078   -26226.571   -148.55003    136.41899   -186.40693   -395.66215    41.141405    41.141405    82.282811 
   19200    836.93157   -25355.153     -26220.5   -204.95663   -348.20603   -136.99066   -129.67319    41.144489    41.144489    82.288979 
   19300    840.98733   -25349.224   -26218.764   -148.51306   -197.61395    246.81787   -494.74311    41.147005    41.147005     82.29401 
   19400     827.8688   -25343.358   -26199.334     232.3909    247.60806      575.285   -125.72035    41.148708    41.148708    82.297416 
   19500    842.21498   -25337.498   -26208.308   -33.156584   -21.168598   -358.30192    280.00076    41.150271    41.150271    82.300542 
   19600    838.41791   -25331.714   -26198.598    150.68128    379.38245    87.859663   -15.198284    41.151289    41.151289    82.302578 
   19700    856.93393   -25325.915   -26211.944   -40.553668    211.49941     135.2278   -468.38821    41.152573    41.152573    82.305146 
   19800    841.44997    -25320.19   -26190.209    410.16415    338.33734    512.78083    379.37427     41.15415     41.15415    82.308299 
   19900    851.44231   -25314.486   -26194.837    184.03697    430.71087    186.57424     -65.1742    41.156907    41.156907    82.313814 
   20000    856.05772   -25308.829   -26193.952   -23.183383   -15.104082    85.435769   -139.88184     41.16013     41.16013     82.32026 
   20100    863.09269   -25303.201   -26195.597   -55.359067   -320.67685    344.52616   -189.92651     41.16351     41.16351    82.327019 
   20200    859.00115   -25297.651   -26185.817   -30.640731   -107.04618    304.11285   -288.98887    41.167053    41.167053    82.334106 
   20300    867.67389   -25292.087    -26189.22   -306.28105   -303.19991    -604.4626    -11.18064    41.170473    41.170473    82.340946 
   20400    861.21398   -25286.594   -26177.048   -96.377231   -737.78365    249.42117    199.23079     41.17303     41.17303     82.34606 
   20500    861.19673   -25281.099   -26171.535    90.884916    84.933047    251.69456   -63.972861    41.175263    41.175263    82.350526 
   20600     868.2022   -25275.648   -26173.327   -99.916685   -169.35433   -130.65768   0.26195245    41.177027    41.177027    82.354054 
   20700    856.06806   -25270.234   -26155.367    371.22144    374.71562    193.93741    545.01128    41.178221    41.178221    82.356443 
   20800    867.45344   -25264.874   -26161.779    238.35203     792.1627   -389.44811    312.34151    41.179664    41.179664    82.359329 
   20900    867.61487   -25259.558    -26156.63    298.18206    341.21058    17.468044    535.86756     41.18156     41.18156    82.363119 
   21000    874.66853    -25254.26   -26158.625    188.41347     410.0984    185.76502   -30.623001     41.18399     41.18399    82.367979 
   21100    879.80759   -25249.015   -26158.694    45.390322    275.45049   -308.36118    169.08165     41.18668     41.18668    82.373359 
   21200    868.86514   -25243.808   -26142.172    322.86338     17.52764    662.99978     288.0627    41.189813    41.189813    82.379625 
   21300    888.37513   -25238.597   -26157.134   -198.61918   -164.91337   -175.79542   -255.14874    41.193081    41.193081    82.386163 
   21400    881.68154   -25233.459   -26145.075    -9.466309    -679.2904    169.54578    481.34569    41.195698    41.195698    82.391396 
   21500     889.6251   -25228.338   -26148.167   -43.003633   -222.06768   -193.61034    286.66712    41.198113    41.198113    82.396226 
   21600    890.81258     -25223.3   -26144.357   -218.26531   -223.33168   -421.48221   -9.9820374    41.200016    41.200016    82.400032 
   21700     887.3666   -25218.266    -26135.76   -9.9681721    232.39228   -113.81792   -148.47888    41.201689    41.201689    82.403377 
   21800    902.54755   -25213.242   -26146.433   -241.70381   -598.41104   -219.56662    92.866217     41.20325     41.20325    82.406501 
   21900    896.71306   -25208.312    -26135.47    55.931728    166.58332   -266.05143     267.2633    41.204674    41.204674    82.409348 
   22000    894.55647   -25203.423   -26128.352    115.10275    198.33161    174.97901   -28.002362    41.206437    41.206437    82.412874 
   22100    906.40905   -25198.552   -26135.735   -13.406476    274.21035   -282.96627   -31.463506    41.208601    41.208601    82.417202 
   22200    899.71941   -25193.754   -26124.021     124.5334   -281.45147    204.02439    451.02727    41.211225    41.211225    82.422451 
   22300    899.17858   -25188.975   -26118.683    95.901549   -362.35362   -129.09431    779.15258    41.214193    41.214193    82.428386 
   22400    909.23347   -25184.209   -26124.313   -97.473773   -296.65624   -308.76651    313.00143     41.21764     41.21764    82.435281 
   22500    899.16686   -25179.479   -26109.174    170.22437    489.94192    75.047881   -54.316704    41.220589    41.220589    82.441177 
   22600    913.01374   -25174.827    -26118.84     -141.772    -640.6536   -136.94404    352.28164    41.222943    41.222943    82.445886 
   22700    921.43516   -25170.229   -26122.948    -330.5935   -787.87299   -122.10782   -81.799707    41.224753    41.224753    82.449506 
   22800    900.79778   -25165.684   -26097.066    324.84389    343.57311    15.810179    615.14837    41.225797    41.225797    82.451594 
   22900    915.02064   -25161.123    -26107.21     28.66051   -31.083343   -596.17443     713.2393    41.226863    41.226863    82.453725 
   23000    919.62746   -25156.623   -26107.474    14.318094    109.13251   -471.56015    405.38192    41.227841    41.227841    82.455681 
   23100    921.72101   -25152.208   -26105.223   -3.9908345     79.71256   -132.68806    41.002993    41.228812    41.228812    82.457624 
   23200    920.98441   -25147.825   -26100.078    72.712569   -44.080724    345.79849   -83.580061    41.230165    41.230165    82.460329 
   23300    927.01903   -25143.451   -26101.944   -6.6341416    304.67112    22.425164   -346.99871    41.231747    41.231747    82.463495 
   23400    920.49367    -25139.16   -26090.906    257.03525    731.58157   -448.03196    487.55614    41.233593    41.233593    82.467185 
   23500    936.10775   -25134.892   -26102.782   -132.85762   -70.431141    226.63867    -554.7804    41.236112    41.236112    82.472224 
   23600    929.23281   -25130.635   -26091.417    18.981802    695.99723      -564.38   -74.671829    41.239165    41.239165     82.47833 
   23700    927.23296   -25126.438   -26085.152    35.676328    614.20615   -371.70406    -135.4731    41.242295    41.242295    82.484589 
   23800     932.3022    -25122.28   -26086.236   -120.77264   -51.346185   -393.93256    82.960815    41.245326    41.245326    82.490652 
   23900    946.13333    -25118.14   -26096.396    -459.7686   -686.45852    -589.3122    -103.5351    41.248103    41.248103    82.496207 
   24000    922.72702   -25114.095   -26068.151    153.39044    748.91767   -489.57107    200.82473     41.24985     41.24985      82.4997 
   24100    934.23437   -25110.033   -26075.986   -158.56776   -336.16631   -270.63787     131.1009    41.251374    41.251374    82.502748 
   24200    926.45338   -25106.025   -26063.933     253.7964    324.21391    339.94588    97.229423    41.252048    41.252048    82.504095 
   24300    941.00888   -25102.063    -26075.02   -115.13358   -26.999734     2.051273   -320.45229    41.252295    41.252295    82.504589 
   24400    950.65434   -25098.152   -26081.083     -142.493   -524.08032   -151.61985    248.22117    41.252576    41.252576    82.505152 
   24500    937.59035   -25094.357    -26063.78    288.02227    381.65928    67.376592    415.03094    41.252693    41.252693    82.505385 
   24600    935.32788   -25090.555   -26057.639    386.34767    62.630057    546.55332    549.85963    41.253549    41.253549    82.507099 
   24700    951.74893    -25086.74   -26070.802   -43.189641    54.539247   -85.082294   -99.025877    41.255421    41.255421    82.510841 
   24800    943.78352   -25083.044    -26058.87    225.62157    383.14362   0.41612015    293.30496    41.257268    41.257268    82.514536 
   24900    936.58773   -25079.387   -26047.774    473.75188    644.24762    296.36026    480.64777    41.259854    41.259854    82.519708 
   25000    952.17091   -25075.705   -26060.204   -77.056301   -333.92755   -373.55952    476.31817    41.263339    41.263339    82.526677 
   25100    945.50067   -25072.098   -26049.701    136.28653   -57.895827    46.864399    419.89102    41.266331    41.266331    82.532663 
   25200    955.73836    -25068.51   -26056.697   -197.98923   -237.01763    303.80696   -660.75702    41.268829    41.268829    82.537658 
   25300    952.51949    -25064.99   -26049.849   -70.338472    98.427825   -13.344214   -296.09903    41.270417    41.270417    82.540834 
   25400    958.30599   -25061.495   -26052.337   -164.57597   -616.21808    381.02812   -258.53794    41.271524    41.271524    82.543049 
   25500    948.35578    -25058.04   -26038.594    119.85298    621.84728    81.233295   -343.52163    41.271948    41.271948    82.543895 
   25600    961.75895   -25054.603   -26049.016   -39.252105    -329.3755    246.41024   -34.791049    41.272353    41.272353    82.544707 
   25700    949.73064   -25051.247   -26033.223    294.03692   -84.984695     374.3535    592.74194     41.27257     41.27257     82.54514 
   25800    965.00739   -25047.895   -26045.667    26.298226   -173.64497   -115.01228    367.55193     41.27355     41.27355      82.5471 
   25900    964.17637   -25044.628    -26041.54    146.32825   -60.077528    288.48578    210.57651    41.275038    41.275038    82.550076 
   26000    967.47428   -25041.375   -26041.697    -3.283752   -518.42544    31.401951    477.17223    41.277672    41.277672    82.555345 
   26100    967.85869   -25038.155   -26038.874   -104.02368   -513.75506    329.77835   -128.09431    41.280967    41.280967    82.561934 
   26200    972.37225    -25034.99   -26040.376   -112.29462   -860.74795    653.38392   -129.51982    41.283986    41.283986    82.567971 
   26300    976.62088    -25031.88   -26041.659   -307.93919   -230.89301   -516.48278   -176.44176    41.286613    41.286613    82.573225 
   26400    969.44999   -25028.812   -26031.177   -169.07557   -142.79347   -150.00988   -214.42334    41.288485    41.288485    82.576971 
   26500     977.3442   -25025.773     -26036.3   -397.21078   -1111.5822   -75.916413   -4.1337124    41.289384    41.289384    82.578769 
   26600    976.57378   -25022.747   -26032.477   -163.59862   -842.02852    502.77206   -151.53941    41.289704    41.289704    82.579407 
   26700    984.41345   -25019.789   -26037.625   -196.65118   -199.94287   -189.28677   -200.72391    41.289398    41.289398    82.578796 
   26800    977.84862   -25016.886   -26027.934    161.89133    98.118433    337.69934    49.856206    41.289159    41.289159    82.578318 
   26900    975.01665   -25014.011   -26022.132     21.26679   -170.38487    175.69287    58.492373    41.289683    41.289683    82.579366 
   27000    974.71692   -25011.172   -26018.983    139.93254    -349.7114    203.47784    566.03119    41.290386    41.290386    82.580771 
   27100    975.01415   -25008.411   -26016.529    154.97355   -164.32209    192.76606     436.4767    41.291213    41.291213    82.582426 
   27200    985.09694   -25005.677   -26024.219   -3.8782244   -351.43681    180.04608    159.75606    41.292412    41.292412    82.584824 
   27300    981.69803   -25003.012    -26018.04    83.731314    495.09394   -125.93869   -117.96131    41.294057    41.294057    82.588114 
   27400    985.78157    -25000.36    -26019.61   -112.73355   0.79532747   -28.461771   -310.53419    41.296667    41.296667    82.593334 
   27500    985.40798   -24997.696    -26016.56   -164.36213   -473.22794   -312.90566     293.0472    41.299582    41.299582    82.599164 
   27600    982.36782   -24995.096   -26010.817   -113.20952    114.41492   -199.85927   -254.18421    41.302096    41.302096    82.604191 
   27700     980.9084   -24992.502   -26006.714    -156.1267   -125.47342    232.53536   -575.44205     41.30392     41.30392    82.607841 
   27800    991.74653   -24989.987   -26015.405    -305.4785   -424.22705    54.528114   -546.73657     41.30426     41.30426     82.60852 
   27900    989.32213   -24987.508   -26010.419   -82.120038    158.39967   -370.52551   -34.234275    41.303513    41.303513    82.607025 
   28000    975.35561   -24985.108   -25993.579    335.00739    377.66189    605.38659    21.973709    41.301941    41.301941    82.603882 
   28100    980.41861   -24982.683   -25996.389    258.69988   -52.939134    574.26376    254.77501    41.301086    41.301086    82.602173 
   28200    986.54511   -24980.294   -26000.334    233.98264    298.80504    456.27833   -53.135472     41.30093     41.30093     82.60186 
   28300    986.75021   -24977.973   -25998.225     304.5948    479.17738     264.0502    170.55681    41.301689    41.301689    82.603377 
   28400     993.7325   -24975.738    -26003.21    143.78238    155.15015    343.29351   -67.096539    41.303496    41.303496    82.606992 
   28500    995.97354   -24973.528   -26003.317    19.771617    35.410945     -21.2729    45.176805    41.306346    41.306346    82.612691 
   28600    988.63978   -24971.356   -25993.562    114.18718   -96.446889    199.95675    239.05167    41.309595    41.309595     82.61919 
   28700    1004.2658   -24969.201   -26007.563   -207.05985   -1021.2078    225.42737    174.60092    41.312978    41.312978    82.625957 
   28800    999.64724   -24967.108   -26000.696   -344.11884   -793.46171   -83.645049   -155.24977    41.315365    41.315365     82.63073 
   28900    987.43774   -24965.047    -25986.01    18.167721   -225.35584    14.400262    265.45874    41.316656    41.316656    82.633312 
   29000    996.28011   -24962.975    -25993.08   -156.67853    20.418544   -412.84555   -77.608591    41.317321    41.317321    82.634643 
   29100    1009.3344    -24960.95   -26004.553   -360.13492    64.045133   -766.91735   -377.53254    41.316943    41.316943    82.633885 
   29200    986.92918    -24958.96   -25979.398    208.27985    1022.1343     24.17194   -421.46674      41.3162      41.3162      82.6324 
   29300    1002.5717   -24956.927   -25993.538   -53.031714    99.849456    763.45609   -1022.4007    41.316058    41.316058    82.632115 
   29400    1000.9351   -24954.941    -25989.86    35.592843    331.22137   -216.24649   -8.1963505    41.316168    41.316168    82.632337 
   29500    1003.2168   -24953.054   -25990.332    6.8541739    344.29666   -44.286378   -279.44776    41.316594    41.316594    82.633187 
   29600    991.96041   -24951.193   -25976.833    360.90588    589.22853     319.7911      173.698     41.31756     41.31756    82.635121 
   29700    1005.1986   -24949.436   -25988.763    -48.57958   -223.29808    -49.61579    127.17513    41.318716    41.318716    82.637433 
   29800    996.38975   -24947.707   -25977.926    205.82381    615.18473    540.36565   -538.07895    41.320316    41.320316    82.640632 
   29900    1003.1779   -24945.915   -25983.153   -25.179382   -585.50617    789.53823   -279.57021     41.32311     41.32311     82.64622 
   30000    1004.5822   -24944.087   -25982.777   -167.36077    398.34875    -100.0432   -800.38786    41.326367    41.326367    82.652735 
   30100    1006.3363   -24942.324   -25982.827   -256.50083   -56.282675   -178.98623   -534.23359    41.328656    41.328656    82.657313 
   30200     997.0984   -24940.614   -25971.566   -96.138221   -514.61172    276.30752   -50.110458    41.329723    41.329723    82.659445 
   30300    1016.2542   -24938.967   -25989.725   -486.95891   -878.46319    128.52373   -710.93727    41.329221    41.329221    82.658442 
   30400    1011.6271    -24937.41   -25983.384    -153.9791    364.33246   -287.68782   -538.58195    41.327228    41.327228    82.654456 
   30500      1002.09    -24935.86   -25971.973    229.47936   -384.73135    421.88754    651.28189    41.325373    41.325373    82.650745 
   30600    1008.1738   -24934.352   -25976.755    66.611228    3.3785638    126.30602    70.149102    41.324145    41.324145     82.64829 
   30700    1014.9412   -24932.952   -25982.352    17.603889    -236.1165   -154.09913     443.0273     41.32329     41.32329     82.64658 
   30800    1000.9006   -24931.624   -25966.507    427.55213    609.87869    463.39203    209.38566    41.323091    41.323091    82.646183 
   30900    1006.0308   -24930.303    -25970.49    278.66681    255.37599    570.81909    9.8053527    41.324176    41.324176    82.648353 
   31000    1012.3373   -24929.023   -25975.731    145.48789    899.13987    229.26362   -691.93982    41.325951    41.325951    82.651902 
   31100    1013.1485   -24927.727   -25975.274    15.362553   -70.176837   -70.784572    187.04907    41.328733    41.328733    82.657466 
   31200    1013.1891   -24926.418   -25974.007   -130.31462    308.98212   -131.52733   -568.39866     41.33203     41.33203    82.664059 
   31300    1005.2841   -24925.117   -25964.533    56.775956    301.46643   -77.903839   -53.234719    41.334906    41.334906    82.669812 
   31400     1001.626   -24923.821   -25959.454    2.1052733     234.9723   -544.54642    315.88995     41.33714     41.33714    82.674279 
   31500    1013.6048   -24922.541    -25970.56   -212.60094    572.28373   -770.63309   -439.45345    41.337955    41.337955     82.67591 
   31600    1005.9268   -24921.297   -25961.377     26.07776   -38.013279    360.02198   -243.77542     41.33713     41.33713     82.67426 
   31700    1015.8658   -24920.131   -25970.488   -161.19123   -184.28965   -163.30956   -135.97448    41.335156    41.335156    82.670313 
   31800    1023.4837   -24918.891   -25977.124   -151.88178    14.216861   -96.575678   -373.28652    41.333733    41.333733    82.667467 
   31900      999.851   -24917.753   -25951.551    577.29977     849.6215    522.62638    359.65141    41.332507    41.332507    82.665013 
   32000    1023.2107   -24916.649   -25974.599    8.2586709   -92.125046   -245.27657    362.17763    41.332396    41.332396    82.664793 
   32100    1019.1918   -24915.595    -25969.39    31.281842   -132.91583    384.06328   -157.30193    41.333111    41.333111    82.666221 
   32200    1011.5187   -24914.579   -25960.441    226.00332    24.111472    541.28825    112.61026    41.334714    41.334714    82.669429 
   32300    1020.0102   -24913.595   -25968.236    5.6710719   -7.2658724   -39.803737    64.082825    41.336942    41.336942    82.673885 
   32400    1015.5479   -24912.643   -25962.671   -42.076147      343.828   0.91870569   -470.97515    41.339227    41.339227    82.678453 
   32500    1020.8512   -24911.695   -25967.206   -322.07224   -704.62262   -187.80323   -73.790859    41.341199    41.341199    82.682398 
   32600    1012.8431   -24910.779    -25958.01   -31.036073    148.85572   -107.71413   -134.24982    41.342018    41.342018    82.684037 
   32700    1010.5672   -24909.852   -25954.729    26.230428    58.685759   -101.26893    121.27446    41.342347    41.342347    82.684693 
   32800    1021.9808   -24908.918   -25965.597   -317.55094    -514.0796    13.488605   -452.06183    41.342177    41.342177    82.684354 
   32900    1018.4488   -24908.081   -25961.108   -110.12183   -9.7527404   -215.49149   -105.12126    41.340683    41.340683    82.681366 
   33000    1015.8652    -24907.25   -25957.606     7.177064    184.80777   -228.27181    64.995228    41.338804    41.338804    82.677607 
   33100    1017.2893   -24906.418   -25958.246    85.417376     136.1531   -495.51386    615.61289    41.337086    41.337086    82.674171 
   33200    1022.9602   -24905.647   -25963.339    45.756236    417.78402   -331.89543    51.380121    41.335681    41.335681    82.671363 
   33300     1019.069   -24904.895   -25958.563    300.50947    231.57268    537.72035    132.23537    41.335021    41.335021    82.670043 
   33400    1026.2897   -24904.164   -25965.298    128.23416    309.42671   -143.08535    218.36112    41.335903    41.335903    82.671805 
   33500     1015.295   -24903.517   -25953.283    221.04434    192.90025    300.25682    169.97594     41.33773     41.33773     82.67546 
   33600    1025.0706   -24902.914   -25962.788   -103.12281    73.739346    18.978821    -402.0866    41.339901    41.339901    82.679801 
   33700     1021.297   -24902.331   -25958.303   -60.454155   -716.79342    161.67968    373.75126    41.342225    41.342225    82.684449 
   33800    1003.0679    -24901.81   -25938.933    350.43377    13.013201    328.06476    710.22334    41.344117    41.344117    82.688235 
   33900    1020.2102   -24901.237   -25956.085   -22.973357    237.95672    141.86388   -448.74068    41.345985    41.345985     82.69197 
   34000    1011.6642   -24900.708    -25946.72    74.394721    322.71359   -310.44987    210.92045    41.346997    41.346997    82.693994 
   34100    1016.1751   -24900.186   -25950.863    28.305721    479.19129   -228.03876   -166.23537    41.347096    41.347096    82.694193 
   34200    1013.6633   -24899.634   -25947.713    77.376057   -4.5743196    29.374151    207.32834    41.346758    41.346758    82.693517 
   34300     1025.805   -24899.119   -25959.752   -220.43222   -862.90436     357.7252    -156.1175    41.345759    41.345759    82.691518 
   34400    1015.0137   -24898.598   -25948.074    137.83288    20.787507    173.61467    219.09647    41.344339    41.344339    82.688679 
   34500    1028.2681    -24898.19    -25961.37   -7.4835174   -293.29146    214.97179    55.869121    41.342567    41.342567    82.685133 
   34600    1021.5051   -24897.825   -25954.012    124.25228    399.39131    263.82605   -290.46053    41.341102    41.341102    82.682204 
   34700    1026.9755   -24897.479   -25959.323   -4.9376936    182.29885    319.97759   -517.08952      41.3404      41.3404      82.6808 
   34800    1021.6494   -24897.204   -25953.541     156.0749    513.16227    366.03739   -410.97495    41.340128    41.340128    82.680255 
   34900    1018.7366       -24897   -25950.324    264.87051    258.62752    21.723034    514.26097    41.340502    41.340502    82.681004 
   35000    1026.6823   -24896.835   -25958.375    49.754579    35.794338   -381.95606    495.42546      41.3415      41.3415    82.683001 
   35100    1004.9857    -24896.65   -25935.757    512.19386    540.56864    783.78926    212.22369    41.343217    41.343217    82.686434 
   35200    1009.7858   -24896.376   -25940.446    149.51242   -153.24586    59.008073    542.77505      41.3456      41.3456    82.691199 
   35300    1022.9468   -24896.122     -25953.8   -135.12115    277.36862   -21.108074   -661.62399    41.347575    41.347575     82.69515 
   35400    1016.1156    -24895.88   -25946.495    59.690261    88.304189   -4.9627114    95.729306     41.34882     41.34882    82.697641 
   35500    1015.3829   -24895.614   -25945.471     40.73365    25.704344    429.92307   -333.42647    41.349652    41.349652    82.699303 
   35600    1024.8515   -24895.393    -25955.04   -172.49597    150.05907   -38.881567   -628.66541     41.34939     41.34939     82.69878 
   35700    1023.8484   -24895.225   -25953.835    9.2693096   -190.01737     239.7986   -21.973301    41.347984    41.347984    82.695967 
   35800    1032.4669   -24895.073   -25962.594   -276.58143   -38.753349   -156.23811   -634.75282    41.346274    41.346274    82.692548 
   35900    1020.7943   -24894.915   -25950.367    144.23919   -32.486332    81.880632    383.32327    41.344704    41.344704    82.689408 
   36000    1029.6674   -24894.819   -25959.445   -19.074975    24.359918   -210.65915    129.07431    41.343371    41.343371    82.686742 
   36100    1018.7862   -24894.713   -25948.089    307.29268    336.16715   -273.70559    859.41648    41.342815    41.342815    82.685629 
   36200    1028.7365   -24894.634   -25958.298   -22.105958   -607.53512    360.72569    180.49155    41.343211    41.343211    82.686423 
   36300      1031.18   -24894.592   -25960.782   -55.942758   -386.59212   -197.53791    416.30175    41.344339    41.344339    82.688678 
   36400    1028.0584   -24894.596   -25957.559   -164.68751    144.29151     -800.466    162.11197    41.345685    41.345685     82.69137 
   36500    1028.5966   -24894.657   -25958.177   -232.68515    -349.7415   -351.43368    3.1197465    41.346616    41.346616    82.693231 
   36600     1017.249   -24894.687   -25946.473    148.80434    130.15367   -267.75531    584.01465    41.347307    41.347307    82.694614 
   36700    1032.7271    -24894.75   -25962.541   -352.06073   -560.24916    184.74904   -680.68208    41.347309    41.347309    82.694618 
   36800    1020.7628   -24894.851   -25950.271   -20.890905   -558.15381    34.762274    460.71882     41.34641     41.34641     82.69282 
   36900    1031.1678   -24894.909   -25961.087   -364.33688    -667.5674   -635.74097    210.29772    41.345305    41.345305     82.69061 
   37000     1013.627   -24894.974   -25943.016    368.63462     665.5207    379.82528     60.55787    41.343486    41.343486    82.686972 
   37100    1025.5867   -24894.971   -25955.379    67.546688    118.48412    376.22532   -292.06938    41.342476    41.342476    82.684953 
   37200    1016.7674   -24894.965   -25946.253    360.59639   -264.18574    918.35051    427.62439    41.342091    41.342091    82.684183 
   37300    1024.6687    -24894.97   -25954.428   0.14319407   -387.68712    268.45758    119.65911    41.342544    41.342544    82.685088 
   37400    1026.9981   -24894.991   -25956.857   -113.78603   -179.56281    9.1221149   -170.91739    41.343117    41.343117    82.686234 
   37500    1002.7476   -24895.042   -25931.835    604.04382     612.7479    913.02652    286.35705    41.343299    41.343299    82.686599 
   37600    1028.2549   -24894.994    -25958.16   -178.00444    112.34589   -494.57215   -151.78708    41.344425    41.344425    82.688851 
   37700    1025.1666   -24895.036   -25955.009   -100.22894    388.70309   -48.464686   -640.92523    41.344858    41.344858    82.689717 
   37800    1019.0246   -24895.048    -25948.67    86.779089   -96.522387    609.58266   -252.72301    41.345231    41.345231    82.690461 
   37900    1023.6489   -24895.003   -25953.407     22.12784    39.602701    346.46313   -319.68231    41.345997    41.345997    82.691994 
   38000    1028.9748   -24894.926   -25958.837   -303.76359   -289.15376   -298.36026   -323.77674    41.346472    41.346472    82.692943 
   38100    1014.8482   -24894.913   -25944.217    134.62801    275.65004   -51.153233    179.38722    41.345827    41.345827    82.691655 
   38200    1028.9716   -24894.882    -25958.79   -92.450799    -216.3066    285.90423   -346.95003    41.345009    41.345009    82.690018 
   38300    1018.7959   -24894.888   -25948.274     219.4619    491.14284    173.82878   -6.5859314    41.344243    41.344243    82.688486 
   38400    1026.7538   -24894.873   -25956.487   -56.271335    -52.13184    -286.2239    169.54173    41.344221    41.344221    82.688442 
   38500    1018.0853   -24894.842   -25947.493     274.3944    237.04295    492.95541    93.184849    41.344545    41.344545    82.689091 
   38600    1028.5027   -24894.788    -25958.21   -285.05116   -888.41974    61.525755   -28.259507    41.345408    41.345408    82.690815 
   38700    1014.7596    -24894.71   -25943.922    235.69396    248.55612    133.88144    324.64432    41.346071    41.346071    82.692142 
   38800    1028.8292   -24894.645   -25958.405   -146.88422   -100.07854    62.817354   -403.39148    41.346826    41.346826    82.693652 
   38900    1028.5072   -24894.623    -25958.05   -183.15586    182.82308   -456.41512   -275.87553    41.347471    41.347471    82.694942 
   39000    1024.7837   -24894.668   -25954.245   -187.58831   -244.58622   -97.294209   -220.88452    41.347699    41.347699    82.695399 
   39100    1024.4983   -24894.662   -25953.944    60.896714    223.44747    349.85367     -390.611    41.347721    41.347721    82.695442 
   39200    1023.7127   -24894.593   -25953.063   -149.48032    414.32962    55.907207   -918.67778    41.347918    41.347918    82.695837 
   39300    1024.6724   -24894.579   -25954.041   -163.09531    685.46856   -645.47897   -529.27552    41.347296    41.347296    82.694593 
   39400     1027.501   -24894.491   -25956.878   -142.89855   -256.27556   -587.98945    415.56937    41.346874    41.346874    82.693749 
   39500    1029.8609   -24894.423    -25959.25   -277.45186   -513.50194   -587.36064      268.507    41.346194    41.346194    82.692387 
   39600    1013.7088   -24894.383   -25942.509    325.49216    130.23364    616.89255     229.3503    41.345052    41.345052    82.690103 
   39700    1023.9024   -24894.327   -25952.993    52.997715   -612.92654    758.60609     13.31359    41.344412    41.344412    82.688823 
   39800    1016.6023   -24894.306   -25945.424    246.34581    79.224556    517.22573    142.58716    41.343787    41.343787    82.687574 
   39900    1035.9943   -24894.284   -25965.452   -142.08415   -737.40409   -131.24478    442.39641    41.343436    41.343436    82.686872 
   40000     1029.433    -24894.39   -25958.774   -94.567024   -57.175261    248.87855   -475.40436    41.342858    41.342858    82.685717 
   40100    1026.7976   -24894.443   -25956.103    17.516758    57.233792    242.33259    -247.0161    41.343224    41.343224    82.686449 
   40200     1024.682   -24894.542   -25954.014    137.54032    297.38876    -271.1765    386.40869    41.344012    41.344012    82.688023 
   40300    1032.0189   -24894.632    -25961.69   -66.376925   -321.27846    139.35911   -17.211426    41.345568    41.345568    82.691137 
   40400    1022.5405   -24894.695   -25951.953   -67.783583   -107.97873   -546.39446    451.02245    41.347542    41.347542    82.695083 
   40500    1027.8815   -24894.693   -25957.473   -216.10284    43.687812   -39.517686   -652.47864    41.349222    41.349222    82.698443 
   40600    1030.0168   -24894.682    -25959.67   -305.79617    -390.8255   -491.69081   -34.872201    41.349871    41.349871    82.699741 
   40700    1013.5116    -24894.68   -25942.602    4.4984999   -157.79358    82.605981    88.683103    41.349318    41.349318    82.698637 
   40800    1027.7993   -24894.642   -25957.337   -251.34921    195.67368    -882.6679   -67.053398    41.347987    41.347987    82.695974 
   40900    1019.0255   -24894.625   -25948.249    183.86732    1029.6343   -512.42305    34.390682    41.345631    41.345631    82.691261 
   41000    1031.3425   -24894.577   -25960.935   -172.10949    352.04139   -434.00241   -434.36745    41.343755    41.343755    82.687509 
   41100    1031.6332    -24894.48   -25961.139    -67.00634   -819.66986   -332.00932    950.66016     41.34287     41.34287     82.68574 
   41200    1010.4987   -24894.445   -25939.252    490.63151    695.51565    373.92874    402.45014    41.342633    41.342633    82.685266 
   41300    1023.1429   -24894.351   -25952.232    127.28335     536.0638   -129.57054   -24.643222    41.343782    41.343782    82.687564 
   41400      1035.14   -24894.276   -25964.561   -310.86106   -378.41503   -271.96979   -282.19838    41.345421    41.345421    82.690843 
   41500    1011.8568   -24894.264   -25940.475    198.45674    59.316239   -212.29816    748.35214    41.346724    41.346724    82.693448 
   41600    1024.9278   -24894.192   -25953.918   -271.42002   -682.71454    32.085567   -163.63109    41.348057    41.348057    82.696113 
   41700    1026.7011   -24894.118   -25955.678   -183.63515   -163.25143   -256.01675   -131.63727    41.348419    41.348419    82.696839 
   41800    1024.4316    -24894.12   -25953.333   -212.15451   -505.57664   -38.486423   -92.400451    41.347568    41.347568    82.695137 
   41900    1022.8311   -24894.163   -25951.721    72.651885    33.182451     562.5267    -377.7535    41.345814    41.345814    82.691628 
   42000    1017.4957   -24894.207   -25946.249    232.83112     545.2816    707.36756   -554.15581    41.344166    41.344166    82.688332 
   42100    1030.7878   -24894.211   -25959.996   -117.39511   -353.43959    653.14935    -651.8951    41.343223    41.343223    82.686446 
   42200    1024.2319   -24894.242   -25953.249    10.051566    450.28917   -236.20538    -183.9291    41.342698    41.342698    82.685395 
   42300    1020.9934   -24894.277   -25949.935    162.15573    327.82991     -21.5383    180.17557    41.342579    41.342579    82.685159 
   42400    1040.4849   -24894.336   -25970.148   -202.26242   -213.24261    172.16493   -565.70957    41.342983    41.342983    82.685966 
   42500     1020.403   -24894.463   -25949.511    125.58335    302.79398    77.777895   -3.8218166    41.343628    41.343628    82.687256 
   42600    1028.3535   -24894.535   -25957.803   -65.735236    132.73904    195.86386   -525.80861    41.345012    41.345012    82.690024 
   42700    1024.5826   -24894.575   -25953.944   -95.135493    101.74203    48.840687    -435.9892    41.346551    41.346551    82.693103 
   42800    1013.3414   -24894.594   -25942.341    123.89593   -186.39522   -489.38022    1047.4632    41.347652    41.347652    82.695304 
   42900    1025.7812   -24894.597   -25955.205   -230.84361   -73.238012   -25.325652   -593.96717    41.348132    41.348132    82.696264 
   43000    1016.0466   -24894.583   -25945.127    131.89814    28.054192    77.001761    290.63847    41.347622    41.347622    82.695244 
   43100    1015.3604   -24894.551   -25944.384    121.46371    185.77343   -526.69616    705.31387    41.346486    41.346486    82.692972 
   43200    1022.3572   -24894.465   -25951.533   -2.0187268   -29.576997   -343.65713    367.17794    41.345414    41.345414    82.690829 
   43300    1038.4789   -24894.391   -25968.128   -421.02095   -658.68148   -611.19017    6.8087978    41.344368    41.344368    82.688736 
   43400    1015.9151   -24894.364   -25944.771    277.79906    650.25064    211.14368   -27.997151     41.34302     41.34302     82.68604 
   43500     1016.608   -24894.326    -25945.45    395.36906    932.28823    154.50679     99.31216    41.342614    41.342614    82.685229 
   43600    1024.1738   -24894.291   -25953.238    174.45839    542.80642    52.144261   -71.575502    41.343174    41.343174    82.686349 
   43700      1022.77   -24894.293   -25951.788    78.250333    421.38502   -607.39422     420.7602    41.344139    41.344139    82.688279 
   43800    1028.0677   -24894.289   -25957.262   -41.607675    12.650435   -267.30053    129.82707     41.34549     41.34549    82.690981 
   43900    1026.6195   -24894.318   -25955.793   -152.44688   -116.59844    -200.9695   -139.77269    41.346601    41.346601    82.693203 
   44000    1016.7166   -24894.391   -25945.627    127.11984    735.29692    -362.7467    8.8093045    41.347083    41.347083    82.694166 
   44100     1021.704   -24894.423   -25950.816   -102.36795    140.61797    94.674918   -542.39673    41.347639    41.347639    82.695278 
   44200    1024.4045   -24894.476   -25953.661   -126.41993   -60.708215    89.308922   -407.86049    41.347529    41.347529    82.695058 
   44300    1037.8578   -24894.502   -25967.597   -451.24355    -335.4761   -407.99279   -610.26177    41.347203    41.347203    82.694406 
   44400     1019.958   -24894.534   -25949.122    153.87085    548.50598    65.069972   -151.96341    41.346422    41.346422    82.692845 
   44500    1021.9797   -24894.574   -25951.252    47.768747    80.256291    553.07203   -490.02208     41.34553     41.34553    82.691059 
   44600    1025.0758   -24894.579   -25954.458    11.020663   -191.67852    254.10948   -29.368977    41.344907    41.344907    82.689814 
   44700    1030.6455   -24894.632   -25960.269   -259.60682   -585.64794     300.7471   -493.91962    41.344278    41.344278    82.688556 
   44800     1025.998   -24894.654   -25955.486    3.1567761   -225.58735    578.58089   -343.52321    41.343832    41.343832    82.687664 
   44900    1026.9784   -24894.663   -25956.509   0.88142613    258.91568    293.53314   -549.80454    41.343802    41.343802    82.687603 
   45000    1014.7438   -24894.673    -25943.87    239.07887    201.30565   -27.456225    543.38719    41.344172    41.344172    82.688344 
   45100    1040.5093   -24894.617   -25970.453   -481.66266   -468.99556   -94.342228   -881.65018    41.345118    41.345118    82.690237 
   45200    1015.4799   -24894.667   -25944.624    100.58643    216.31283   -199.02221    284.46868    41.345285    41.345285    82.690571 
   45300    1028.4173   -24894.694   -25958.028   -66.052896   -115.88503    370.61433   -452.88798    41.345696    41.345696    82.691392 
   45400    1018.9499   -24894.723   -25948.268     14.25984   -169.80128   -26.750839    239.33164    41.346156    41.346156    82.692312 
   45500    1012.7359   -24894.689   -25941.809    120.54315    89.795062    255.79916    16.035216      41.3466      41.3466    82.693201 
   45600    1022.2242   -24894.646   -25951.576   -40.941923    207.24075   -84.928591   -245.13792     41.34648     41.34648    82.692961 
   45700    1010.6256   -24894.597   -25939.536    200.24572   -532.74706    756.51879    376.96543     41.34596     41.34596     82.69192 
   45800     1010.108   -24894.495   -25938.898    251.39209    138.84262    601.52157    13.812074    41.345777    41.345777    82.691555 
   45900    1027.9097   -24894.369   -25957.178   -141.35287    412.33252   -106.23125   -730.15987    41.346046    41.346046    82.692093 
   46000    1024.9242   -24894.279   -25954.001    85.667191    182.83945    481.41902    -407.2569    41.346045    41.346045     82.69209 
   46100    1026.9347   -24894.231   -25956.032   -154.01029    2.3017967   -111.74831   -352.58435    41.345943    41.345943    82.691886 
   46200    1014.2262   -24894.258   -25942.919    182.15914    261.39936    871.71863   -586.64057    41.345204    41.345204    82.690408 
   46300    1031.2213     -24894.2   -25960.433   -222.63887   -40.947383    -131.1693   -495.79992    41.344946    41.344946    82.689892 
   46400    1030.3918   -24894.196   -25959.572   -146.79848   -649.52029     131.0909    78.033945    41.344394    41.344394    82.688787 
   46500    1014.8309   -24894.207   -25943.493    328.60952    769.54822    192.01977    24.260559    41.344069    41.344069    82.688137 
   46600    1033.4968   -24894.184    -25962.77    -263.4535   -135.93293   -31.831669   -622.59591    41.344603    41.344603    82.689206 
   46700    1020.1607   -24894.234   -25949.031    170.37488   -251.52751   -86.562185    849.21434    41.344678    41.344678    82.689356 
   46800    1037.6752    -24894.35   -25967.257   -263.36393   -241.24655    415.31975   -964.16499    41.344894    41.344894    82.689789 
   46900    1017.3093   -24894.516   -25946.364    248.81449    571.57074    301.61307   -126.74035    41.345268    41.345268    82.690537 
   47000    1015.1241    -24894.66    -25944.25    101.61477    911.79528   -208.36698   -398.58398    41.346109    41.346109    82.692218 
   47100     1013.638   -24894.766   -25942.819    282.35075    837.56459    702.90958   -693.42191    41.346835    41.346835    82.693671 
   47200    1024.1362   -24894.837   -25953.744   -75.165497   -187.36914    467.52647   -505.65383    41.347423    41.347423    82.694846 
   47300    1012.9404   -24894.883   -25942.215    152.92616    23.741448    488.38935   -53.352313    41.347485    41.347485    82.694969 
   47400    1015.6863   -24894.933   -25945.104    191.97797    226.73313    481.40282   -132.20204    41.346851    41.346851    82.693702 
   47500    1015.7685   -24894.984    -25945.24    218.60776    29.924963    548.44662    77.451682    41.345976    41.345976    82.691953 
   47600    1037.3647    -24895.01   -25967.596   -231.77726    -666.6361    104.05836   -132.75405    41.345277    41.345277    82.690555 
   47700    1020.3488   -24895.098    -25950.09    188.73911   -113.13928    394.51352     284.8431    41.344212    41.344212    82.688425 
   47800    1017.7734   -24895.196   -25947.525    141.63121   -161.51888    -327.7228     914.1353    41.343582    41.343582    82.687165 
   47900    1032.4124    -24895.23   -25962.694   -202.50316   -93.326615    -317.4597   -196.72315    41.343779    41.343779    82.687557 
   48000    1024.2662   -24895.239   -25954.281    14.798568   -12.775504   -102.92035    160.09156    41.344185    41.344185     82.68837 
   48100    1018.6253   -24895.208   -25948.417    155.58947    362.93866    -143.2019    247.03165    41.344869    41.344869    82.689737 
   48200    1027.4895   -24895.207   -25957.582   -175.92329    142.50411   -885.40573    215.13174    41.345377    41.345377    82.690753 
   48300    1032.4736   -24895.185   -25962.713   -357.59418   -1130.5342    761.27913   -703.52744    41.345595    41.345595    82.691191 
   48400    1015.6595   -24895.168   -25945.311    281.67421    32.900796    185.88731    626.23453    41.345373    41.345373    82.690746 
   48500    1024.6847   -24895.151   -25954.626   -31.048419   -53.855491   -119.09646    79.806694    41.345488    41.345488    82.690977 
   48600    1015.5263   -24895.152   -25945.157    253.54396    334.52426    425.84403   0.26359124    41.345666    41.345666    82.691333 
   48700    1029.2921   -24895.191    -25959.43   -122.13922   -966.43363    832.56581   -232.54984    41.345916    41.345916    82.691831 
   48800    1029.3414   -24895.229   -25959.519   -195.97704   -452.56307     157.7617   -293.12975    41.346144    41.346144    82.692287 
   48900     1021.228    -24895.25   -25951.151    54.531667   -242.61097    382.95192     23.25405    41.346211    41.346211    82.692423 
   49000    1020.0732   -24895.265   -25949.972   -95.925866   -370.80374   -51.852302    134.87844    41.345874    41.345874    82.691747 
   49100    1021.8069   -24895.263   -25951.762    8.2635637    112.87169    193.47482   -281.55582    41.345077    41.345077    82.690155 
   49200    1022.2422   -24895.275   -25952.224    23.448202   -379.58138    441.79921    8.1267751     41.34425     41.34425    82.688499 
   49300    1039.7384   -24895.324   -25970.364   -309.84791   -159.92502     -281.541    -488.0777    41.343318    41.343318    82.686635 
   49400    1014.7786   -24895.445   -25944.677     316.1451    723.89062    364.18157   -139.63689    41.342235    41.342235    82.684471 
   49500    1023.6548   -24895.477   -25953.887    157.37717    921.82232   -839.20659    389.51577    41.342388    41.342388    82.684775 
   49600    1013.9987     -24895.5   -25943.926    351.36758    122.45285    531.72872    399.92116    41.343305    41.343305     82.68661 
   49700    1024.1367   -24895.514   -25954.423    48.818259   -45.320235   -161.80121    353.57623    41.344762    41.344762    82.689524 
   49800    1017.5127   -24895.572   -25947.631    63.255938    187.83418   -167.46169    169.39533    41.345965    41.345965     82.69193 
   49900    1031.3618   -24895.559   -25961.938   -438.42874    -486.5865   -381.09463   -447.60507    41.347129    41.347129    82.694258 
   50000    1028.8327   -24895.506    -25959.27   -319.93484    -326.4204   -442.86929   -190.51482    41.347403    41.347403    82.694805 
Loop time of 1533.03 on 1 procs for 50000 steps with 8000 atoms

Pair  time (%) = 1388.44 (90.5685)
Neigh time (%) = 103.411 (6.74551)
Comm  time (%) = 8.6878 (0.566707)
Outpt time (%) = 0.624209 (0.0407173)
Other time (%) = 31.8644 (2.07852)

Nlocal:    8000 ave 8000 max 8000 min
Histogram: 1 0 0 0 0 0 0 0 0 0
Nghost:    9087 ave 9087 max 9087 min
Histogram: 1 0 0 0 0 0 0 0 0 0
Neighs:    292763 ave 292763 max 292763 min
Histogram: 1 0 0 0 0 0 0 0 0 0

Total # of neighbors = 292763
Ave neighs/atom = 36.5954
Neighbor list builds = 5000
Dangerous builds = 0
1263 atoms in group liquid_group
Setting up run ...
Memory usage per processor = 9.60384 Mbytes
Step Temp TotEng PotEng Press Pxx Pyy Pzz Lx Ly Lz 
   50000    1028.8327   -24895.506    -25959.27   -319.93484    -326.4204   -442.86929   -190.51482    41.347403    41.347403    82.694805 
   50100    1023.4049   -24894.741   -25952.893   -107.20133   -217.26786   -302.79558    198.45947    41.347403    41.347403    82.694809 
   50200    1026.3136   -24892.906   -25954.065   -121.01211   -80.229124   -630.91461     348.1074    41.347403    41.347403    82.694895 
   50300    1025.3901   -24891.057   -25951.262   -69.390763   -99.683346    -369.1728    260.68386    41.347403    41.347403    82.695088 
   50400    1035.2355   -24889.292   -25959.676   -275.60437   -229.45759   -1004.3094    406.95384    41.347403    41.347403    82.695412 
   50500    1034.5728   -24887.386   -25957.084   -176.80508   -304.80662   -704.24689    478.63827    41.347403    41.347403    82.696009 
   50600    1030.1773   -24885.273   -25950.427    -26.11198    9.1585416    -608.4819    520.98742    41.347403    41.347403    82.696831 
   50700    1033.8741    -24883.14   -25952.116   -67.694306   -38.202304    -458.0377    293.15709    41.347403    41.347403    82.697872 
   50800    1036.5698   -24880.962   -25952.726   -54.400936    -125.7222   -462.04259    424.56198    41.347403    41.347403    82.699104 
   50900    1034.5036   -24878.725   -25948.352    45.313723   -75.700859    32.124457    179.51757    41.347403    41.347403    82.700537 
   51000    1036.6945   -24876.519   -25948.411     97.61543    -42.72039    -253.1745    588.74118    41.347403    41.347403     82.70214 
   51100    1036.9579   -24874.235     -25946.4    120.33908    35.425253   -84.149229    409.74123    41.347403    41.347403    82.703988 
   51200    1039.9913    -24871.93   -25947.231    137.76466    52.984102   -130.56713      490.877    41.347403    41.347403    82.706048 
   51300    1036.7743   -24869.612   -25941.587    197.36935    425.49622   -215.38715    381.99899    41.347403    41.347403    82.708313 
   51400    1039.4111   -24867.301   -25942.002    229.96014    138.61857   -124.89012    676.15197    41.347403    41.347403    82.710767 
   51500    1042.0673   -24864.949   -25942.397    194.21198    80.048044   -307.76208    810.34998    41.347403    41.347403    82.713471 
   51600    1042.6333   -24862.571   -25940.604    215.96403    371.00119   -194.82996    471.72086    41.347403    41.347403    82.716429 
   51700     1041.165   -24860.197   -25936.712    388.94846    270.07249    256.41105    640.36183    41.347403    41.347403     82.71955 
   51800    1045.7528   -24857.811    -25939.07    284.34532      287.085    29.395464    536.55549    41.347403    41.347403      82.7229 
   51900    1045.1967   -24855.392   -25936.075    348.87868    180.31837   -11.273767    877.59146    41.347403    41.347403    82.726534 
   52000    1044.8897   -24852.947   -25933.313     381.6986    260.13006   -167.78522     1052.751    41.347403    41.347403    82.730523 
   52100    1049.4459   -24850.516   -25935.593    253.86214   -10.236755    -53.01884    824.84202    41.347403    41.347403    82.734904 
   52200    1047.8981   -24848.069   -25931.545    395.58465    230.84815    262.55594    693.34986    41.347403    41.347403    82.739614 
   52300    1054.4046   -24845.599   -25935.802    255.35904    381.47364   -247.49446    632.09794    41.347403    41.347403    82.744586 
   52400    1054.7012   -24843.106   -25933.616    293.55871     141.3806   -234.41222    973.70774    41.347403    41.347403    82.749856 
   52500    1050.0183   -24840.627   -25926.296    501.11136    277.45473    337.36245     888.5169    41.347403    41.347403    82.755624 
   52600    1052.1908   -24838.121   -25926.035     458.5221    167.88663    10.297991    1197.3817    41.347403    41.347403    82.761783 
   52700    1051.4558   -24835.585    -25922.74    452.06772    260.17403    405.83929    690.18983    41.347403    41.347403    82.768304 
   52800    1058.2267   -24833.021   -25927.177    320.61035    238.10314    18.065302    705.66261    41.347403    41.347403    82.775114 
   52900    1055.6204   -24830.464   -25921.925      425.309    400.64108   -206.93214     1082.218    41.347403    41.347403    82.782221 
   53000    1061.5375   -24827.903   -25925.482    304.94838    190.62041    163.03006    561.19466    41.347403    41.347403    82.789717 
   53100    1061.6256   -24825.298   -25922.968    363.67478    287.19137   -175.95502    979.78799    41.347403    41.347403    82.797524 
   53200    1056.7852   -24822.717   -25915.382     488.3908    484.43505     21.02973    959.70761    41.347403    41.347403    82.805696 
   53300    1060.3567   -24820.098   -25916.456     433.8449    505.83675    36.735343    758.96262    41.347403    41.347403    82.814204 
   53400    1063.5209   -24817.459   -25917.089     333.7745    153.17794    100.28949    747.85608    41.347403    41.347403    82.822914 
   53500    1063.9768   -24814.839    -25914.94    312.34158     338.9174   -202.64419    800.75153    41.347403    41.347403     82.83184 
   53600    1062.6594   -24812.196   -25910.935    357.85841    546.69993   -256.76326    783.63856    41.347403    41.347403     82.84106 
   53700    1061.8645   -24809.518   -25907.435    464.88438    586.53316   -46.926755    855.04674    41.347403    41.347403    82.850476 
   53800    1071.5773   -24806.837   -25914.796    109.54648     125.0014    27.844212    175.79384    41.347403    41.347403    82.860094 
   53900    1064.4427   -24804.083   -25904.666    407.89571    355.44686    121.45855    746.78172    41.347403    41.347403    82.869775 
   54000    1068.1933   -24801.389    -25905.85    293.47729    307.54049   -202.31793    775.20932    41.347403    41.347403    82.879615 
   54100    1076.5346   -24798.622   -25911.707    64.850188   -59.625359    52.371198    201.80473    41.347403    41.347403    82.889614 
   54200     1073.212   -24795.884   -25905.534    167.91729    3.0126595   -160.40851    661.14773    41.347403    41.347403    82.899638 
   54300    1073.3227   -24793.143   -25902.907     183.7051   0.13456147    177.90231    373.07843    41.347403    41.347403    82.909832 
   54400    1075.6856   -24790.381   -25902.588    112.86028    115.88288   -49.099187    271.79714    41.347403    41.347403    82.920106 
   54500    1071.8712   -24787.594   -25895.857    232.56445     485.7318    -283.9639    495.92544    41.347403    41.347403    82.930371 
   54600    1078.4217   -24784.781   -25899.817    34.428001   -56.148655   -166.47853    325.91118    41.347403    41.347403     82.94064 
   54700    1076.7369   -24781.985   -25895.279    79.267449    38.371613   -268.42843    467.85917    41.347403    41.347403    82.950881 
   54800    1083.5923   -24779.137    -25899.52   -76.076812   -88.671223   -747.26525    607.70604    41.347403    41.347403    82.961165 
   54900    1081.5735   -24776.304   -25894.599    -28.69798    81.567261   -213.87052    46.209316    41.347403    41.347403    82.971553 
   55000    1080.0718   -24773.434   -25890.177    77.393996    182.16262   -300.56154    350.58091    41.347403    41.347403    82.981908 
   55100    1086.6136   -24770.552   -25894.058   -19.236792    269.27442   -328.29966    1.3148573    41.347403    41.347403    82.992225 
   55200    1085.1287   -24767.681   -25889.652   -84.971988     56.57843   -387.09181     75.59741    41.347403    41.347403    83.002428 
   55300    1093.2056   -24764.781   -25895.102   -190.39334   -436.52253   -178.78036    44.122878    41.347403    41.347403    83.012477 
   55400     1085.618   -24761.881   -25884.358    25.033294   -47.257157   -37.015514    159.37255    41.347403    41.347403    83.022386 
   55500    1086.1588   -24758.947   -25881.983    2.0415138    299.68034   -241.48975   -52.066049    41.347403    41.347403    83.032166 
   55600    1089.6405   -24756.044    -25882.68   -133.30655   -232.75535   -111.43134   -55.732962    41.347403    41.347403      83.0418 
   55700    1086.3163    -24753.11   -25876.309    15.355342    215.53182   -65.097346   -104.36845    41.347403    41.347403     83.05124 
   55800    1087.1489   -24750.195   -25874.254   -31.524173     156.1844   -222.40334   -28.353578    41.347403    41.347403    83.060499 
   55900    1096.3713   -24747.241   -25880.837   -216.94667    73.354718   -480.05698   -244.13776    41.347403    41.347403    83.069636 
   56000    1090.1516   -24744.285   -25871.449   -29.051591   -143.34948   -222.22671    278.42142    41.347403    41.347403    83.078578 
   56100    1088.3419   -24741.338   -25866.631    72.729411    256.57664   -185.00224    146.61383    41.347403    41.347403     83.08743 
   56200    1093.0858   -24738.386   -25868.584    18.264135    159.77641   -85.484688   -19.499317    41.347403    41.347403    83.096186 
[...]
  136300    1098.0373   -24648.719   -25784.036    173.99785    533.53182    -114.1301    102.59183    41.347403    41.347403    83.434747 
  136400    1105.4038   -24649.698   -25792.632    -174.3991   -201.45942     -380.525    58.787121    41.347403    41.347403    83.429657 
  136500    1103.6676   -24650.702   -25791.841   -93.561521    248.52322   -688.35633    159.14855    41.347403    41.347403    83.424718 
  136600    1100.6335   -24651.688    -25789.69    38.184856    214.94469   -23.977034   -76.413084    41.347403    41.347403    83.419991 
  136700    1105.5021    -24652.72   -25795.756   -149.72399   -142.20822   -320.30037    13.336604    41.347403    41.347403    83.415223 
  136800    1105.4947   -24653.738   -25796.766   -107.18768    344.29396   -496.21163   -169.64536    41.347403    41.347403    83.410341 
  136900    1107.8905   -24654.743   -25800.248   -219.78146    111.34514   -373.95648   -396.73305    41.347403    41.347403    83.405327 
  137000     1108.333   -24655.759   -25801.722   -203.76811   -264.60103   -135.46926   -211.23402    41.347403    41.347403    83.400048 
  137100    1105.8773   -24656.774   -25800.198   -148.23014   -142.61682    -307.3861    5.3124852    41.347403    41.347403    83.394645 
  137200    1098.1982   -24657.781   -25793.265    97.195848   -173.26379   -153.38359    618.23492    41.347403    41.347403    83.389455 
  137300    1110.1509   -24658.789   -25806.632   -339.99867   -196.29287   -613.16747   -210.53568    41.347403    41.347403    83.384628 
  137400    1100.9624   -24659.809   -25798.151   -27.657849    176.65439   -159.66862   -99.959318    41.347403    41.347403    83.379707 
  137500    1107.7595   -24660.806   -25806.176   -31.374002   -44.432387    -278.6988    229.00918    41.347403    41.347403      83.3747 
  137600    1103.7728   -24661.797   -25803.045   -48.699534    -13.99915    92.612656   -224.71211    41.347403    41.347403    83.369891 
  137700    1103.2894   -24662.792    -25803.54   -16.297451    2.8988418    45.061181   -96.852376    41.347403    41.347403    83.365027 
  137800    1108.1933   -24663.766   -25809.584   -118.19813    74.829355   -366.59384   -62.829888    41.347403    41.347403    83.360176 
  137900    1103.1132   -24664.749   -25805.315    30.400096    503.04519   -266.99187   -144.85303    41.347403    41.347403    83.355344 
  138000    1108.2781   -24665.754   -25811.661   -106.38859   -22.751465   -530.66349    234.24918    41.347403    41.347403    83.350453 
  138100    1098.3218   -24666.773   -25802.385    137.47576    473.20119    5.5333244    -66.30725    41.347403    41.347403    83.345684 
  138200    1109.2531   -24667.795   -25814.709   -43.909452   -158.38552    151.79324   -125.13608    41.347403    41.347403    83.340837 
  138300    1111.6321   -24668.807   -25818.181    -236.1369    85.122861   -367.63901   -425.89454    41.347403    41.347403    83.335972 
  138400    1110.7847   -24669.843   -25818.341   -133.90058   -26.297626   -284.89344   -90.510667    41.347403    41.347403    83.330975 
  138500     1110.198   -24670.872   -25818.763   -175.85712    82.179965   -609.74098  -0.01034228    41.347403    41.347403    83.325991 
  138600     1106.233    -24671.88   -25815.672   -81.935927    277.28353   -400.55223   -122.53908    41.347403    41.347403    83.321078 
  138700    1098.2708    -24672.89   -25808.449    94.596263    585.34081   -490.96102      189.409    41.347403    41.347403    83.316086 
  138800    1102.6665   -24673.889   -25813.993    127.34342    341.55365    395.04227   -354.56565    41.347403    41.347403    83.311062 
  138900     1108.097   -24674.886   -25820.605   -106.11805   -215.36372   -266.38499    163.39457    41.347403    41.347403    83.305926 
  139000    1105.7991   -24675.879   -25819.222   -62.053142    361.18905   -425.65203   -121.69645    41.347403    41.347403    83.300961 
  139100    1109.3627   -24676.885   -25823.912   -122.80554    414.51664   -867.04954     84.11628    41.347403    41.347403    83.296111 
  139200    1100.7708   -24677.883   -25816.027    135.19294    228.02866   -335.87244    513.42261    41.347403    41.347403    83.291499 
  139300    1103.1286   -24678.911   -25819.493     93.09623    180.20254    52.233078    46.853068    41.347403    41.347403    83.287097 
  139400    1104.0607   -24679.936   -25821.481     18.51286    217.91245   -296.21812    133.84425    41.347403    41.347403    83.282625 
  139500    1110.0929   -24680.943   -25828.726   -47.930638  -0.10446951   -215.79362    72.106179    41.347403    41.347403    83.278248 
  139600    1107.5754   -24681.983   -25827.163   -9.6576879    88.942528   -114.24738   -3.6682137    41.347403    41.347403    83.273948 
  139700    1102.7486   -24682.981    -25823.17    36.646481   -62.793436    284.09868   -111.36581    41.347403    41.347403     83.26968 
  139800    1099.3222   -24683.977   -25820.623    150.04522    125.52414    46.025203    278.58632    41.347403    41.347403      83.2654 
  139900    1106.0897   -24684.958   -25828.601    15.120929    49.769857   -72.002787    67.595717    41.347403    41.347403      83.2613 
  140000    1104.0949   -24685.925   -25827.506   -39.204797   -1.1659326   -101.23334   -15.215113    41.347403    41.347403    83.257435 
  140100    1110.4737   -24686.918   -25835.094   -104.25389   -24.611801   -216.59159   -71.558284    41.347403    41.347403    83.253766 
  140200    1107.5412   -24687.945   -25833.089   -17.190598    279.36483   -178.91969   -152.01693    41.347403    41.347403    83.250057 
  140300    1102.7516   -24688.942   -25829.134    35.820255    166.39849   -23.487993   -35.449734    41.347403    41.347403     83.24637 
  140400    1107.1896   -24689.948   -25834.729     38.96809    82.390307    499.41763   -464.90366    41.347403    41.347403    83.242636 
  140500    1099.6931   -24690.962   -25827.992    237.86739    358.57138    324.22414    30.806655    41.347403    41.347403    83.238538 
  140600    1112.4239   -24691.985   -25842.178   -94.142887    81.163024   -411.62464     48.03295    41.347403    41.347403    83.234484 
  140700    1101.5883   -24692.992   -25831.981    52.807875   -94.201715    18.143296    234.48204    41.347403    41.347403    83.230721 
  140800     1105.937   -24693.977   -25837.463    109.58498    419.49078    17.145238   -107.88108    41.347403    41.347403    83.227281 
  140900    1107.3009   -24694.987   -25839.883   -18.772659    339.74943   -162.68841   -233.37899    41.347403    41.347403    83.223751 
  141000    1108.3843   -24695.999   -25842.015    42.796124    628.44837   -153.29348   -346.76652    41.347403    41.347403     83.22001 
  141100    1105.1207       -24697   -25839.642    -87.00013    212.10482   -62.129055   -410.97615    41.347403    41.347403    83.216098 
  141200    1099.5176   -24697.982   -25834.831    193.02091    362.72993   -34.731992     251.0648    41.347403    41.347403    83.211939 
  141300    1110.9274   -24698.988   -25847.633   -71.878841    91.357103   -277.57196   -29.421664    41.347403    41.347403    83.207862 
  141400    1104.2671   -24699.975   -25841.734    43.832838   -148.06453   -52.299935    331.86298    41.347403    41.347403    83.203978 
  141500    1099.7431   -24700.957   -25838.039    249.24026    596.03625    100.82052    50.863995    41.347403    41.347403    83.200285 
  141600    1105.9839   -24701.937   -25845.471    28.524123   -189.93916     39.60556    235.90597    41.347403    41.347403    83.196611 
  141700    1094.2421   -24702.906   -25834.299    322.21819    95.686681    289.73112    581.23677    41.347403    41.347403    83.193268 
  141800    1102.3884   -24703.843   -25843.659    32.821763    93.087946   -254.27705    259.65439    41.347403    41.347403    83.190453 
  141900    1097.6077   -24704.772   -25839.645    174.85141    171.21339    173.17136    180.16949    41.347403    41.347403    83.187972 
  142000    1097.1144   -24705.658   -25840.021    173.49539    319.49671   -232.40073     433.3902    41.347403    41.347403    83.185861 
  142100    1098.6932   -24706.557   -25842.553    210.15343    362.40516    301.20432    -33.14919    41.347403    41.347403    83.184083 
  142200    1102.1227    -24707.46   -25847.002   -49.288974    163.37669   -227.56553   -83.678082    41.347403    41.347403    83.182462 
  142300    1098.6727    -24708.36   -25844.334    17.314567   -332.13449   -87.676415    471.75461    41.347403    41.347403     83.18114 
  142400    1098.8548   -24709.257    -25845.42    19.525141    300.52344   -115.97537   -125.97265    41.347403    41.347403    83.180124 
  142500    1094.2835   -24710.144   -25841.581    117.71212    67.553013   -289.77678    575.36011    41.347403    41.347403     83.17915 
  142600    1095.4406    -24711.04   -25843.673    111.06101     429.6116   -136.66454    40.235963    41.347403    41.347403    83.178575 
  142700    1084.2541   -24711.928   -25832.995    358.97021    271.26072    461.89263    343.75727    41.347403    41.347403    83.178096 
  142800    1101.5564   -24712.789   -25851.745    -117.5016    63.151635   -371.57341   -44.083009    41.347403    41.347403    83.177747 
  142900     1094.262   -24713.661   -25845.075   -3.0954695    12.997369   -283.40858     261.1248    41.347403    41.347403    83.177431 
  143000    1091.7661   -24714.526   -25843.359    117.70569   -61.277739    184.59463    229.80019    41.347403    41.347403    83.177212 
  143100     1091.928   -24715.384   -25844.385    48.914404    164.05251   -176.22747    158.91818    41.347403    41.347403    83.177041 
  143200    1095.7061   -24716.237   -25849.145   -30.015166   -8.4348492    45.790247    -127.4009    41.347403    41.347403    83.177053 
  143300    1097.2553   -24717.099   -25851.608    -164.8595   -25.106949   -486.68395      17.2124    41.347403    41.347403    83.177181 
  143400    1095.4749   -24717.964   -25850.633   -35.568408    383.55551   -286.94413   -203.31661    41.347403    41.347403    83.177258 
  143500    1097.9616   -24718.849   -25854.089   -191.15037     120.8663   -622.30102   -72.016386    41.347403    41.347403     83.17719 
  143600    1090.3191   -24719.701   -25847.038   -25.636029    39.486037    14.509944   -130.90407    41.347403    41.347403    83.177014 
  143700    1098.4309   -24720.553   -25856.277   -186.11481   -390.57932   -438.39991     270.6348    41.347403    41.347403    83.176678 
  143800    1097.1145   -24721.394   -25855.757   -236.43857   -630.38067   -1.0329957   -77.902055    41.347403    41.347403    83.176433 
  143900    1096.0933   -24722.222   -25855.529   -128.32838   -127.87936   -418.72362    161.61783    41.347403    41.347403     83.17605 
  144000     1084.189   -24723.043   -25844.042    64.956247   -1.4915466    376.20924   -179.84895    41.347403    41.347403    83.175725 
  144100    1096.4373   -24723.855   -25857.518   -311.18416    -362.7471   -741.30925    170.50388    41.347403    41.347403    83.175299 
  144200    1094.9135    -24724.68   -25856.768   -314.11766   -236.68589   -536.45041   -169.21667    41.347403    41.347403    83.174946 
  144300    1090.6319   -24725.512   -25853.172   -264.74277     178.8313   -393.68177   -579.37783    41.347403    41.347403    83.174416 
  144400     1091.505   -24726.331   -25854.894   -328.60393    109.91798   -943.62483   -152.10495    41.347403    41.347403    83.173587 
  144500    1084.1651   -24727.142   -25848.117   -60.629457    336.60393   -271.73352   -246.75879    41.347403    41.347403    83.172665 
  144600     1094.805   -24727.964   -25859.939   -305.07846   -118.37328   -581.50056   -215.36154    41.347403    41.347403    83.171567 
  144700    1088.2366   -24728.772   -25853.956   -209.15965    46.086839    -170.0155    -503.5503    41.347403    41.347403    83.170288 
  144800    1101.9943   -24729.591       -25869   -557.38483   -397.47072   -676.03345   -598.65032    41.347403    41.347403    83.168561 
  144900    1087.2389   -24730.439   -25854.592   -146.00234   -332.29126   -84.412105   -21.303653    41.347403    41.347403    83.166371 
  145000    1088.2196    -24731.25   -25856.417   -142.33905   -376.63802   -289.51944    239.14031    41.347403    41.347403    83.164134 
  145100    1089.5006   -24732.067   -25858.559   -279.34003    -226.3495   -120.30421   -491.36637    41.347403    41.347403    83.161944 
  145200    1085.5133    -24732.91   -25855.278   -131.56473   -110.01766   -414.63444    129.95791    41.347403    41.347403    83.159329 
  145300    1085.4473   -24733.734   -25856.034   -145.37813   -234.20241     63.80641   -265.73838    41.347403    41.347403    83.156569 
  145400    1086.6766   -24734.555   -25858.126   -240.94998   -159.20315   -506.11725    -57.52953    41.347403    41.347403    83.153565 
  145500    1084.0787   -24735.375   -25856.261   -262.10114   -299.44712   -549.75966     62.90336    41.347403    41.347403    83.150426 
  145600    1082.4695    -24736.18   -25855.402   -130.20297   -39.055895   -157.40707   -194.14595    41.347403    41.347403    83.147172 
  145700    1087.5114   -24736.998   -25861.432   -232.07836   -517.27353   -97.824499   -81.137056    41.347403    41.347403    83.143701 
  145800    1081.0235   -24737.826   -25855.552   -77.352524    61.997492   -320.37234    26.317278    41.347403    41.347403    83.140003 
  145900    1086.2998   -24738.636   -25861.818   -205.44436   -93.650321   -137.86461   -384.81816    41.347403    41.347403    83.136196 
  146000    1088.5858   -24739.441   -25864.987   -183.93245   -261.86286   -115.10823   -174.82625    41.347403    41.347403    83.132211 
  146100    1089.1721   -24740.251   -25866.403   -166.97443   -133.66605    156.31024   -523.56748    41.347403    41.347403    83.128107 
  146200    1083.1063   -24741.061    -25860.94   -78.063811   -239.29809    163.32817   -158.22151    41.347403    41.347403    83.123658 
  146300    1080.3622   -24741.852   -25858.894    125.25548     177.1559    140.55402    58.056508    41.347403    41.347403    83.119005 
  146400    1087.2307   -24742.654   -25866.799   -194.56058    266.09193   -575.69175   -274.08193    41.347403    41.347403    83.114381 
  146500    1087.6598   -24743.458   -25868.046   -194.84504    244.86989   -751.65035   -77.754658    41.347403    41.347403    83.109761 
  146600    1086.7748   -24744.257    -25867.93   -163.58993   -1.7933721   -313.16287   -175.81354    41.347403    41.347403    83.105107 
  146700    1078.3365   -24745.053   -25860.001    46.574333   -78.520484   -180.99933    399.24281    41.347403    41.347403    83.100398 
  146800    1080.7868   -24745.835   -25863.317   -51.089249   -63.648215    -81.25657   -8.3629629    41.347403    41.347403    83.095799 
  146900     1090.251   -24746.632   -25873.899   -241.08328   -183.58292    -260.1154   -279.55152    41.347403    41.347403    83.091166 
  147000    1086.0405   -24747.424   -25870.337   -108.68199   -99.790234   -342.02437    115.76863    41.347403    41.347403    83.086571 
  147100    1092.7082   -24748.227   -25878.035   -188.66838   -123.98117   -23.249897   -418.77408    41.347403    41.347403    83.082094 
  147200    1087.1043   -24749.037   -25873.051   -105.17247   -489.84075     161.8299    12.493448    41.347403    41.347403    83.077396 
  147300    1079.2881   -24749.843   -25865.775    138.53126    152.19253    181.10643    82.294808    41.347403    41.347403    83.072704 
  147400    1086.7553   -24750.625   -25874.277   -66.172641    24.995766   -226.94597    3.4322822    41.347403    41.347403    83.068145 
  147500    1085.0077   -24751.392   -25873.237    30.619193    325.29174   -388.11216      154.678    41.347403    41.347403    83.063769 
  147600    1087.2668   -24752.165   -25876.346   -30.674518   -69.179969   -253.79766    230.95407    41.347403    41.347403     83.05958 
  147700     1087.596   -24752.933   -25877.455    7.0098262    84.430227   -322.82194    259.42119    41.347403    41.347403    83.055714 
  147800    1090.0648   -24753.676   -25880.751   -106.14097   -584.32741   -88.234803     354.1393    41.347403    41.347403    83.052294 
  147900    1077.6746   -24754.414   -25868.677    176.01822    380.36663   -41.856383    189.54441    41.347403    41.347403    83.049277 
  148000    1079.7774   -24755.137   -25871.575    128.57124    241.52232   -158.59138    302.78278    41.347403    41.347403    83.046629 
  148100    1087.9551    -24755.88   -25880.774   -109.39351    213.69561   -645.13474    103.25861    41.347403    41.347403    83.044266 
  148200    1085.2682   -24756.635    -25878.75     31.93192    112.06079   -151.18798    134.92295    41.347403    41.347403    83.041968 
  148300    1077.2969   -24757.381   -25871.254    229.65928    332.52845   -191.03666    547.48605    41.347403    41.347403    83.039676 
  148400    1081.3277    -24758.11    -25876.15    102.34512    439.96029   -346.08494       213.16    41.347403    41.347403    83.037752 
  148500    1083.5499   -24758.836   -25879.175   -18.292429     228.0567   -515.76982    232.83584    41.347403    41.347403    83.036012 
  148600    1082.5732   -24759.565   -25878.893    71.902517   -50.782998    61.703024    204.78753    41.347403    41.347403    83.034359 
  148700    1079.1141   -24760.285   -25876.037    92.702584     538.0338   -164.28208    -95.64397    41.347403    41.347403    83.032804 
  148800    1080.6204   -24760.996   -25878.306    42.606916    319.34583   -106.53131   -84.993777    41.347403    41.347403    83.031333 
  148900    1079.8944   -24761.692    -25878.25    77.958208    318.57564   -219.61238    134.91137    41.347403    41.347403    83.030006 
  149000    1079.5321   -24762.388   -25878.572    15.823631   -19.334239   -318.74899    385.55413    41.347403    41.347403    83.028892 
  149100    1075.8731   -24763.082   -25875.483    209.26371    115.34405    18.683443    493.76365    41.347403    41.347403    83.028083 
  149200    1080.1168   -24763.759   -25880.548    67.777363   -336.77636    3.9499775    536.15847    41.347403    41.347403    83.027731 
  149300    1074.9947   -24764.442   -25875.934    118.62698   -16.735564    199.22154    173.39496    41.347403    41.347403    83.027856 
  149400    1088.7137   -24765.124   -25890.802   -263.17447   -234.43467   -404.50217   -150.58658    41.347403    41.347403    83.028241 
  149500    1076.7608   -24765.821    -25879.14    38.470815    161.66177   -428.11103     381.8617    41.347403    41.347403     83.02876 
  149600    1077.5775   -24766.501   -25880.664   -24.229352    222.61934   -288.99515   -6.3122477    41.347403    41.347403    83.029525 
  149700    1078.3716   -24767.166    -25882.15   -51.347683    381.26149     -465.811   -69.493541    41.347403    41.347403    83.030371 
  149800     1080.626    -24767.84   -25885.155   -75.212471   -31.200846   -18.485556   -175.95101    41.347403    41.347403    83.031218 
  149900    1082.1637   -24768.489   -25887.394    -246.7566   -152.49695   -201.65092   -386.12194    41.347403    41.347403    83.032037 
  150000     1076.297   -24769.163   -25882.002   -200.35282   -334.44883    168.49129   -435.10092    41.347403    41.347403    83.032572 
Loop time of 1418.23 on 1 procs for 50000 steps with 8000 atoms

Pair  time (%) = 1292.94 (91.1662)
Neigh time (%) = 98.4395 (6.94103)
Comm  time (%) = 8.37386 (0.590447)
Outpt time (%) = 0.672195 (0.0473969)
Other time (%) = 17.797 (1.25488)

Nlocal:    8000 ave 8000 max 8000 min
Histogram: 1 0 0 0 0 0 0 0 0 0
Nghost:    9049 ave 9049 max 9049 min
Histogram: 1 0 0 0 0 0 0 0 0 0
Neighs:    291082 ave 291082 max 291082 min
Histogram: 1 0 0 0 0 0 0 0 0 0

Total # of neighbors = 291082
Ave neighs/atom = 36.3852
Neighbor list builds = 5000
Dangerous builds = 0
ERROR: Temperature control must be used with fix npt (../fix_npt.cpp:28)
