LAMMPS (13 Jan 2014)
dimension       3
boundary        p p p
units           metal

atom_style	atomic
neighbor	0.3 bin
neigh_modify	every 10 delay 0 check no

# Number of steps for the equilibration steps
variable        eqsteps equal 50000

# Number of steps to run our NPH simulation
variable        simsteps equal 200000

# Our trial melting temperature
variable	T equal 800.0
variable	T2 equal 2*${T}
variable	T2 equal 2*800

# Some high temperature to melt the crystal
variable	Tmelt equal 2000.0

#System size
variable	nx equal 4
variable	ny equal 4
variable	nz equal 20
variable	nzhalf equal ${nz}*0.5
variable	nzhalf equal 20*0.5
variable	a equal 4.050
variable	length equal ${nz}*${a}
variable	length equal 20*${a}
variable	length equal 20*4.05

lattice		fcc ${a}
lattice		fcc 4.05
Lattice spacing in x,y,z = 4.05 4.05 4.05

region         box block 0 ${nx} 0 ${ny} 0 ${nz}
region         box block 0 4 0 ${ny} 0 ${nz}
region         box block 0 4 0 4 0 ${nz}
region         box block 0 4 0 4 0 20
create_box     1 box
Created orthogonal box = (0 0 0) to (16.2 16.2 81)
  1 by 1 by 1 MPI processor grid
create_atoms   1 box
Created 1280 atoms

mass		1 26.9815

pair_style	eam/alloy
pair_coeff	* * Al_potential.alloy Al

velocity	all create ${T2} 1337
velocity	all create 1600 1337

# Create a dump file. This can be visualized with
# e.g. OVITO (http://www.ovito.org/)
dump		id all atom 1000 atomsdump

# 1 fs timestep
timestep	0.001
thermo_style	custom step temp etotal pe press pxx pyy pzz lx ly lz

# output every 100th timestep
thermo		100

# Equilibration the whole system to the trial melting temperature
fix		1 all npt temp ${T} ${T} 1 iso 0 0 3 drag 1.0
fix		1 all npt temp 800 ${T} 1 iso 0 0 3 drag 1.0
fix		1 all npt temp 800 800 1 iso 0 0 3 drag 1.0
run		${eqsteps}
run		50000
Memory usage per processor = 3.13549 Mbytes
Step Temp TotEng PotEng Press Pxx Pyy Pzz Lx Ly Lz 
       0         1600   -4083.8423   -4348.3603    9227.3094     8859.737      9124.79    9697.4013         16.2         16.2           81 
     100    767.25307   -4086.4173   -4213.2624    24268.203    24993.143    24498.439    23313.026    16.235274    16.235274    81.176371 
     200    752.64005   -4090.2527   -4214.6819    11410.613    11499.478    10842.815    11889.548    16.329141    16.329141    81.645703 
     300    743.35482   -4091.2924   -4214.1866    -1483.168   -1266.2764   -1566.4143   -1616.8132    16.432322    16.432322    82.161611 
     400    721.58666   -4089.9864   -4209.2817   -9512.0121   -9882.3031   -9512.8186   -9140.9148    16.503058    16.503058    82.515289 
     500    728.20099   -4088.7801    -4209.169   -12576.933   -12727.095   -13846.975   -11156.727    16.529916    16.529916    82.649578 
     600    736.14377   -4088.5113   -4210.2134    -11208.04   -10985.026   -11012.437   -11626.657    16.518919    16.518919    82.594595 
     700    738.68064   -4088.6383   -4210.7597    -6992.854   -7723.3644   -6354.2595   -6900.9381    16.482544    16.482544    82.412722 
     800    739.89073   -4088.3954   -4210.7169   -1203.1889    -1000.188   -1039.9353   -1569.4434    16.436113    16.436113    82.180563 
     900    754.37017   -4087.5341   -4212.2494    3753.2839    4100.4565    4099.9463    3059.4489      16.3952      16.3952       81.976 
    1000    766.01239   -4086.5188   -4213.1588    6713.4318    6100.4076    7257.2613    6782.6265    16.370944    16.370944    81.854722 
    1100    795.16452   -4085.8215   -4217.2811    6529.4041    5600.1573    6375.8143    7612.2406    16.367798    16.367798    81.838991 
    1200    784.37965    -4085.491   -4215.1676    4905.8072    5340.9185    4241.9541     5134.549    16.382963    16.382963    81.914813 
    1300    756.60528   -4085.2256   -4210.3104    2301.2455     1309.187    2197.1718    3397.3777    16.409393    16.409393    82.046964 
    1400    756.01852   -4084.7493   -4209.7371    -1192.308   -1379.6176   -1101.5213   -1095.7852    16.437828    16.437828    82.189139 
    1500     761.0912   -4084.1393   -4209.9658   -4062.2267   -3416.6199   -4728.3299   -4041.7302    16.459285    16.459285    82.296426 
    1600    747.37818   -4083.5341   -4207.0935   -4411.8678   -4673.2114   -5493.8025   -3068.5894    16.468262    16.468262    82.341312 
    1700    740.61893   -4083.0636   -4205.5055   -3597.4298   -4465.4554   -2806.8415   -3519.9926    16.464163    16.464163    82.320814 
    1800    743.84904   -4082.6266   -4205.6025   -1780.2401   -1642.9009   -1661.8014    -2036.018    16.450527    16.450527    82.252634 
    1900    756.33171   -4082.1516   -4207.1912    70.800247   -534.14294   -125.84234    872.38602    16.432199    16.432199    82.160993 
    2000    767.43962   -4081.6148   -4208.4908    2012.0157    1462.6449      1972.73    2600.6723    16.415403    16.415403    82.077014 
    2100    797.67124   -4081.0667   -4212.9407    2582.1646    2914.3044    2408.9042    2423.2853    16.405527    16.405527    82.027634 
    2200    746.84527   -4080.6091   -4204.0803    4037.3433    4081.2167    3856.9215    4173.8918    16.404824    16.404824    82.024119 
    2300    776.97379   -4080.2446   -4208.6968    2346.8089    2276.8201    2976.0459    1787.5607    16.412854    16.412854    82.064269 
    2400    768.57954   -4079.8935   -4206.9579    1032.1341    882.95595    897.25474    1316.1915    16.426191    16.426191    82.130953 
    2500    775.36327   -4079.5062   -4207.6922   -1145.8588   -1261.4693   -1903.3766   -272.73053    16.440215    16.440215    82.201076 
    2600    767.24612   -4079.0953   -4205.9393   -1997.9724   -3565.6232   -1218.0455   -1210.2486    16.450558    16.450558    82.252789 
    2700    782.44525    -4078.669   -4208.0258   -2963.8547   -3508.2163   -3184.0011   -2199.3467    16.454735    16.454735    82.273677 
    2800    759.09502   -4078.3001   -4203.7965   -1761.5375   -2178.2199   -696.94363   -2409.4489    16.451156    16.451156    82.255781 
    2900    773.25755   -4077.9199   -4205.7577   -951.76742    -281.1807   -2126.8885   -447.23311    16.442773    16.442773    82.213863 
    3000    778.68165   -4077.5191   -4206.2536    209.12086     715.2402   -241.15445    153.27681    16.432397    16.432397    82.161987 
    3100    784.11196    -4077.113   -4206.7453    1324.5445    772.99344    1141.7976    2058.8424    16.423332    16.423332    82.116659 
    3200    796.35163   -4076.7133   -4208.3691    1515.1149     1602.671    1363.3934    1579.2804    16.418898    16.418898     82.09449 
    3300    777.08637   -4076.3782    -4204.849     2152.425    1343.7543    2754.3593    2359.1612    16.419552    16.419552    82.097762 
    3400    794.61966   -4076.0719   -4207.4414    1121.0114    470.99276    1216.8474     1675.194    16.425535    16.425535    82.127677 
    3500    801.02122    -4075.766   -4208.1939   -277.27595   -394.27025    786.64822   -1224.2058    16.434563    16.434563    82.172815 
    3600     782.5911   -4075.4513   -4204.8322   -923.76823   -803.92959   -24.632321   -1942.7428    16.443172    16.443172    82.215861 
    3700     774.8217   -4075.1294   -4203.2258   -1079.4022   -1408.8445   -1395.5254   -433.83688     16.44881     16.44881    82.244048 
    3800    759.43723   -4074.8338   -4200.3868   -1109.1024   -1653.4817   -478.58913   -1195.2364    16.450188    16.450188     82.25094 
    3900     810.9722   -4074.5422   -4208.6152   -1842.5729   -2192.0096   -1962.7565   -1372.9527    16.447558    16.447558    82.237792 
    4000    772.57841   -4074.2812   -4202.0067   -166.43095   -579.05431    207.13869   -127.37724    16.441374    16.441374    82.206869 
    4100    788.36088    -4074.003   -4204.3377    538.64667    1508.9309   -503.24646    610.25553    16.434905    16.434905    82.174527 
    4200    784.56894   -4073.7239   -4203.4317    1175.1897    1018.8411    1716.8458    789.88204     16.43042     16.43042    82.152098 
    4300     769.1527   -4073.4709   -4200.6301    1801.2837    2514.3738    1005.0196    1884.4578    16.428977    16.428977    82.144884 
    4400      784.794    -4073.241    -4202.986    1291.3494    1253.0782    1310.7918    1310.1781    16.431219    16.431219    82.156097 
    4500    813.04206   -4073.0235   -4207.4386   -56.420344   -482.11745   -578.53623    891.39265    16.436172    16.436172     82.18086 
    4600    805.47608   -4072.8269   -4205.9912   -604.25047   -1038.5859    550.54235   -1324.7079    16.441537    16.441537    82.207685 
    4700    794.70431   -4072.6183   -4204.0018   -616.74218   -843.94398   -1151.4841    145.20158     16.44603     16.44603    82.230152 
    4800    799.08898   -4072.4067    -4204.515   -1105.4628   -649.94386   -1177.8153   -1488.6291    16.448584    16.448584    82.242922 
    4900    772.67425    -4072.208   -4199.9494   -573.23642   -1778.7297    964.78892   -905.76848    16.448556    16.448556    82.242782 
    5000    784.98106   -4072.0218   -4201.7978   -456.08113    -425.9055   -325.42808   -616.90982    16.445984    16.445984    82.229921 
    5100    779.38467   -4071.8518   -4200.7025    453.02419    437.98209    931.41386   -10.323384    16.441821    16.441821    82.209105 
    5200    796.15398   -4071.6773   -4203.3005    507.04976    1161.4689    -307.5232    667.20362       16.438       16.438        82.19 
    5300    791.73767   -4071.5083   -4202.4013    883.56725    1695.4104    320.59392    634.69744    16.435835    16.435835    82.179176 
    5400    802.38227   -4071.3664   -4204.0193    488.10702    204.67376    855.55499    404.09231    16.435457    16.435457    82.177286 
    5500    785.42544   -4071.2399   -4201.0894    749.28606    1564.3136   -235.69335     919.2379    16.437059    16.437059    82.185296 
    5600    779.91218    -4071.108    -4200.046    769.47311    701.24993    679.03277    928.13664    16.440373    16.440373    82.201865 
    5700    826.84754   -4070.9978   -4207.6953   -1084.4142   -1037.8846    -799.2832   -1416.0749     16.44408     16.44408    82.220401 
    5800    769.77467   -4070.9076   -4198.1696     252.3697    180.91841   -190.79783    766.98854     16.44656     16.44656      82.2328 
    5900    798.39239   -4070.8044   -4202.7976   -730.12285   -262.63763    -1408.965   -518.76597     16.44792     16.44792    82.239599 
    6000    783.97878   -4070.7069   -4200.3172    -318.3875    -1198.336   -343.32054    586.49408    16.447231    16.447231    82.236153 
    6100    778.54929   -4070.6164   -4199.3291    54.057019    101.29594   -146.55635    207.43146    16.444834    16.444834    82.224168 
    6200    807.29678   -4070.5255   -4203.9908    -210.4035      407.185   -410.08167   -628.31384     16.44158     16.44158    82.207898 
    6300    800.78677   -4070.4445   -4202.8336    604.38132    948.39161    998.13819   -133.38585    16.438475    16.438475    82.192374 
    6400     801.7821   -4070.3709   -4202.9245    465.07689   -348.32229    268.94549    1474.6075    16.436828    16.436828    82.184141 
    6500     811.8941   -4070.3026   -4204.5279    269.82739    1070.7857    535.21675   -796.52024     16.43698     16.43698    82.184898 
    6600    821.71496   -4070.2457   -4206.0946   -135.50766    738.98776   -435.37466   -710.13609    16.438652    16.438652    82.193259 
    6700    789.64505    -4070.197    -4200.744    343.08046    694.36584   -720.08117    1054.9567    16.441205    16.441205    82.206024 
    6800    808.95617    -4070.149   -4203.8886   -501.96579   -92.869498   -1482.0257    68.997802    16.443984    16.443984    82.219922 
    6900    803.16708   -4070.0973   -4202.8799   -441.10585    186.74834   -238.63126   -1271.4346    16.446198    16.446198    82.230989 
    7000    792.99493   -4070.0359   -4201.1368   -577.67853   -276.60101   -475.42719   -981.00739    16.447376    16.447376    82.236881 
    7100    809.71641   -4069.9855   -4203.8508   -750.99048   -849.98376   -875.69591   -527.29176     16.44677     16.44677    82.233848 
    7200    805.35015   -4069.9301   -4203.0736   -410.51163   -1248.8657    467.09337   -449.76252    16.445062    16.445062    82.225311 
    7300    806.22166   -4069.8664    -4203.154   -33.830328    286.38565   -45.281359   -342.59527    16.443192    16.443192     82.21596 
    7400    814.24636   -4069.8265   -4204.4408   -218.42104    512.31661   -943.98866   -223.59107    16.441275    16.441275    82.206375 
    7500    792.81831    -4069.789   -4200.8606    700.17939    425.36742    727.53506     947.6357    16.439812    16.439812     82.19906 
    7600    794.80258   -4069.7559   -4201.1556    741.81468    213.33237     1529.826    482.28567    16.439597    16.439597    82.197986 
    7700    807.64585   -4069.7277   -4203.2507    184.27148    1383.4978    -156.9508   -673.73259    16.440965    16.440965    82.204824 
    7800    803.71846   -4069.7202    -4202.594    16.694559    825.28345   -530.79273   -244.40704    16.442824    16.442824     82.21412 
    7900    771.54913   -4069.7124   -4197.2678     580.3849      890.811    980.67533   -130.33164    16.444745    16.444745    82.223724 
    8000    806.87196   -4069.6861   -4203.0812   -275.48811   -574.16776    -710.2752    457.97863    16.446516    16.446516    82.232579 
    8100     805.7102   -4069.6771   -4202.8802   -749.21118   -502.05882   -1177.3415   -568.23323    16.447021    16.447021    82.235103 
    8200    793.33881   -4069.6593    -4200.817    -180.7415   -728.60316   -712.42569    898.80434    16.446287    16.446287    82.231435 
    8300    787.06176   -4069.6546   -4199.7746    130.72969   -79.368647    25.562804    445.99493    16.444227    16.444227    82.221136 
    8400    811.63054   -4069.6248   -4203.8066   -202.33481    -501.3696   -137.95361    32.318782    16.442244    16.442244    82.211222 
    8500    779.52827   -4069.5926   -4198.4671     608.8248    689.02477    534.09624    603.35338    16.440689    16.440689    82.203447 
    8600    803.71863   -4069.5571   -4202.4309     363.6425    923.16353    -442.2855    610.04948    16.440175    16.440175    82.200873 
    8700    801.10786   -4069.5477   -4201.9898    433.54721    197.46187    414.79273    688.38701    16.440384    16.440384    82.201919 
    8800    783.07572   -4069.5389   -4198.9999    796.10205    1415.3671    465.53591     507.4031    16.441735    16.441735    82.208676 
    8900    814.81305   -4069.5292   -4204.2371   -460.63745    492.55317   -593.83013   -1280.6354    16.443888    16.443888    82.219441 
    9000    797.77576   -4069.5346   -4201.4258   -247.07689   -580.97353    256.53405    -416.7912     16.44531     16.44531    82.226548 
    9100     789.4071   -4069.5419   -4200.0496   -43.820352     218.9401    374.06216   -724.46332    16.445905    16.445905    82.229523 
    9200    789.43742   -4069.5321   -4200.0449   -71.234156     288.1259   -439.39786   -62.430504    16.446193    16.446193    82.230967 
    9300    806.18972   -4069.5222   -4202.8045   -169.56661   -962.37075    436.49365    17.177255    16.445759    16.445759    82.228793 
    9400    789.37104   -4069.5211   -4200.0229    239.56285    819.20445    122.06829   -222.58419    16.444763    16.444763    82.223815 
    9500    782.80434   -4069.5222   -4198.9383    327.95958    -188.2635    307.54938    864.59287     16.44361     16.44361    82.218051 
    9600    793.79576   -4069.5326   -4200.7659    441.88933   -423.25868    771.13599    977.79068    16.442226    16.442226    82.211128 
    9700    803.52751   -4069.5495   -4202.3917     209.3697   -299.04303    1439.0963   -511.94414    16.441309    16.441309    82.206545 
    9800    801.94621   -4069.5537   -4202.1344    394.68314    15.945204    25.273117    1142.8311    16.441149    16.441149    82.205745 
    9900    796.72354   -4069.5715   -4201.2888    531.27466     586.1318    296.83448     710.8577    16.441886    16.441886    82.209431 
   10000    803.44192   -4069.5901   -4202.4181    99.573209   -1163.1205    702.57938     759.2607     16.44354     16.44354    82.217701 
   10100    818.88607   -4069.6161   -4204.9974   -468.60301   -1504.2936    436.29953   -337.81493    16.445595    16.445595    82.227974 
   10200      803.981   -4069.6407   -4202.5578   -473.28266    187.35529   -1651.8398    44.636492    16.447258    16.447258    82.236288 
   10300    800.80952   -4069.6605   -4202.0533   -576.65046   -1571.2629    707.48091   -866.16934    16.447853    16.447853    82.239265 
   10400    802.04933   -4069.6794   -4202.2772   -301.89411   -54.398922   -164.44552   -686.83789    16.447095    16.447095    82.235476 
   10500    772.36682   -4069.6959   -4197.3865    361.57344    691.02709     328.8529    64.840326    16.445196    16.445196    82.225978 
   10600    810.15351   -4069.7034    -4203.641   -52.254082    313.33107   -787.32139    317.22807     16.44283     16.44283     82.21415 
   10700    810.02698    -4069.712   -4203.6287    47.072342    117.22755    31.095644    -7.106167    16.440739    16.440739    82.203695 
   10800    809.10413   -4069.7102   -4203.4743    297.16579   -50.608016    717.23062    224.87478    16.440098    16.440098     82.20049 
   10900    825.37302   -4069.7159   -4206.1697   -286.17468    -272.0194   -372.32034   -214.18432    16.440492    16.440492    82.202462 
   11000     802.4204   -4069.7409      -4202.4    220.62887    49.733273    493.78781    118.36554    16.441332    16.441332    82.206661 
   11100    809.09171   -4069.7604   -4203.5224   -336.45668    81.991361   -492.24357   -599.11783    16.442705    16.442705    82.213523 
   11200    823.91965    -4069.767   -4205.9805   -861.99529   -685.90795   -1864.1247   -35.953252    16.444182    16.444182    82.220911 
   11300    803.61127   -4069.7705   -4202.6265   -281.08769   -628.40295   -255.45576    40.595655    16.445118    16.445118     82.22559 
   11400    821.21069   -4069.7738   -4205.5394   -895.65828    -1190.127   -826.61049   -670.23732    16.445276    16.445276    82.226379 
   11500    777.13843   -4069.7965   -4198.2759    381.79564    108.71448    817.81008    218.86235    16.444102    16.444102    82.220508 
   11600    820.28874   -4069.8006   -4205.4138   -540.86492   -1939.0477    556.02611    -239.5732    16.443026    16.443026     82.21513 
   11700    814.77292   -4069.8038   -4204.5051   -313.92481   -207.64223    -291.6982     -442.434    16.441939    16.441939    82.209697 
   11800    817.17991   -4069.8102   -4204.9094   -231.55873    225.20715   -34.230026   -885.65333    16.441154    16.441154    82.205768 
   11900    796.49703   -4069.8253   -4201.5052    432.31236    329.38276    1560.1344   -592.58009    16.440849    16.440849    82.204245 
   12000    800.38865    -4069.831   -4202.1543    426.80791    415.02281    501.85585    363.54506    16.441637    16.441637    82.208184 
   12100    808.47241   -4069.8474   -4203.5071   -67.208697   -705.73611   -320.77212    824.88214    16.443133    16.443133    82.215664 
   12200    795.73954   -4069.8695   -4201.4241    88.003667   -1255.2741     227.6146    1291.6705    16.444683    16.444683    82.223413 
   12300    786.19891   -4069.8895   -4199.8668   -139.64886    52.886103    -710.6962    238.86353    16.445963    16.445963    82.229814 
   12400    813.60957   -4069.9016   -4204.4105   -714.15382    -302.0347   -1115.6714   -724.75534    16.446447    16.446447    82.232233 
   12500      769.091   -4069.9206   -4197.0696    438.06188    1361.6891    -1272.233    1224.7296    16.445667    16.445667    82.228334 
   12600    798.99622   -4069.9212   -4202.0142   -221.25274    133.52843   -1466.7637    669.47701    16.444529    16.444529    82.222644 
   12700     814.1806   -4069.9188   -4204.5222   -104.34589    49.049787   -511.42039    149.33294    16.443233    16.443233    82.216163 
   12800    804.50061   -4069.9252   -4202.9282    69.323419    64.129943   -706.70871    850.54903    16.442173    16.442173    82.210866 
   12900    816.94305   -4069.9233   -4204.9834   -395.21622    172.26142   -856.72128   -501.18881    16.441797    16.441797    82.208986 
   13000     792.8228   -4069.9296    -4201.002    496.06251    740.15733    49.010175    699.02002    16.441693    16.441693    82.208467 
   13100    823.85987   -4069.9425   -4206.1461   -498.10553     -130.496   -1278.8834   -84.937192     16.44217     16.44217    82.210852 
   13200    795.74853   -4069.9593   -4201.5154    41.389521    -126.9597   -846.71713    1097.8454    16.442916    16.442916    82.214582 
   13300    805.29219   -4069.9891    -4203.123    41.257878    341.18653   -981.62491    764.21201    16.443418    16.443418    82.217088 
   13400    812.29415   -4070.0113   -4204.3028   -551.94517   -242.80613   -57.334299   -1355.6951    16.443916    16.443916    82.219579 
   13500    804.69217   -4070.0254   -4203.0601   -279.13421   -679.48873    226.49437   -384.40828    16.444051    16.444051    82.220256 
   13600    807.59991   -4070.0333   -4203.5487   -188.26188    177.79025   -1056.0803    313.50438    16.443887    16.443887    82.219435 
   13700    813.58153   -4070.0428   -4204.5471   -493.88355   -597.72761   -664.16943   -219.75363    16.443509    16.443509    82.217547 
   13800    773.96291   -4070.0432   -4197.9977    703.58741    312.22269    339.41132    1459.1282    16.443191    16.443191    82.215957 
   13900    791.34997   -4070.0474   -4200.8763    113.17425    19.580031   -616.17613    936.11886    16.442803    16.442803    82.214016 
   14000    790.54132   -4070.0524   -4200.7476    335.93883    144.05341   -412.23083    1275.9939    16.442286    16.442286    82.211432 
   14100     775.5145   -4070.0631    -4198.274     909.6825    829.07784    1156.3446    743.62505    16.441749    16.441749    82.208747 
   14200    796.93806   -4070.0736   -4201.8264    338.63187     1067.472    -861.5053    809.92886    16.441813    16.441813    82.209066 
   14300    788.71017   -4070.0923   -4200.4848    328.99481    205.54619    79.368337    702.06992    16.442214    16.442214     82.21107 
   14400    797.63872   -4070.0993   -4201.9679    -98.57698    168.95161   -283.68331   -180.99923    16.442952    16.442952    82.214759 
   14500     804.9172   -4070.1031    -4203.175   -66.085032   -357.08181    -99.99025    258.81696    16.443494    16.443494    82.217468 
   14600    786.17842   -4070.0967   -4200.0707     352.3068      250.786    429.65703    376.47735    16.444015    16.444015    82.220077 
   14700    792.68691   -4070.0884   -4201.1383   -42.051762   -521.75743    724.38778   -328.78564    16.444305    16.444305    82.221524 
   14800    812.00124   -4070.0732   -4204.3162   -468.01034   -261.59188   -226.36996   -916.06916    16.444243    16.444243    82.221217 
   14900    807.05401   -4070.0592   -4203.4844   -377.49671    -601.3096    639.90556   -1171.0861     16.44355     16.44355    82.217752 
   15000    786.78323   -4070.0425   -4200.1165    443.48629    318.04737    186.80385    825.60766    16.442627    16.442627    82.213137 
   15100    811.52836   -4070.0225   -4204.1874   -13.360216   -150.15101    378.07349   -268.00312    16.442314    16.442314     82.21157 
   15200    793.53319   -4070.0033   -4201.1932    213.59488    463.45936    346.49422   -169.16893    16.442555    16.442555    82.212774 
   15300    800.80016   -4069.9854   -4202.3767    207.18401    1239.4619   -509.98228   -107.92763    16.442923    16.442923    82.214613 
   15400    799.68012    -4069.974   -4202.1801    30.276325   -17.402094   -359.47691    467.70798    16.443394    16.443394    82.216968 
   15500    793.47662   -4069.9541   -4201.1346    153.51161   -962.56544    134.29322    1288.8071    16.443958    16.443958    82.219788 
   15600    797.57158   -4069.9367   -4201.7942   -269.73574   -890.51017    756.83024   -675.52728    16.444298    16.444298    82.221488 
   15700    782.26275   -4069.9278   -4199.2544    255.76047     486.8543    138.34615    142.08096    16.443925    16.443925    82.219627 
   15800    788.08024   -4069.9079   -4200.1963    211.10464     -494.146    1061.6102    65.849682    16.443372    16.443372    82.216858 
   15900    782.35727   -4069.8904   -4199.2326    422.29601   -312.44524    615.89599    963.43728    16.442747    16.442747    82.213736 
   16000    813.08693   -4069.8679   -4204.2905   -456.75253   -107.06056   -1210.4337   -52.763274    16.442333    16.442333    82.211664 
   16100    810.54799   -4069.8543   -4203.8572    58.191668   -160.65151    261.55387    73.672643    16.441779    16.441779    82.208894 
   16200    799.74905   -4069.8485    -4202.066    242.79354    1006.4265   -599.25641    321.21054    16.441581    16.441581    82.207907 
   16300    817.09173   -4069.8488   -4204.9335   -228.82563   -393.23651    462.10812    -755.3485    16.441739    16.441739    82.208697 
   16400    791.67973   -4069.8469   -4200.7303    165.41464    1246.0466   -892.67442    142.87174    16.442153    16.442153    82.210764 
   16500    794.05254   -4069.8394   -4201.1151   -18.727361     816.8121   -461.42012   -411.57406    16.442551    16.442551    82.212755 
   16600     789.5222   -4069.8169   -4200.3437    9.4312659    777.59047    40.303558   -789.60023    16.443013    16.443013    82.215064 
   16700    802.42314   -4069.7882   -4202.4478   -277.95161    554.90853    211.60573   -1600.3691    16.443179    16.443179    82.215895 
   16800    785.03957   -4069.7699   -4199.5556    157.15669    280.41841   -430.47837    621.53001    16.442713    16.442713    82.213564 
   16900    800.64196    -4069.738   -4202.1031    23.584462     475.7173   -575.88479    170.92088    16.442361    16.442361    82.211804 
   17000    802.28211   -4069.6839   -4202.3202   -264.91893    -150.1713    560.38975   -1204.9752    16.442646    16.442646     82.21323 
   17100    815.03282   -4069.6426   -4204.3869   -413.87842    1174.9166   -903.57454   -1512.9773     16.44266     16.44266    82.213301 
   17200    799.19845   -4069.6057   -4201.7321    220.84266    415.38102   -727.75458    974.90152    16.442483    16.442483    82.212416 
   17300    812.44723   -4069.5763   -4203.8931   -200.70113   -1324.2028    1066.6784   -344.57891    16.442479    16.442479    82.212397 
   17400    765.58867   -4069.5628   -4196.1328    1048.5082    2067.8948    857.04582    220.58414    16.442546    16.442546    82.212729 
   17500    797.14699   -4069.5376   -4201.3249    253.13382    432.56258     458.4335   -131.59461    16.443176    16.443176     82.21588 
   17600    818.50895   -4069.5344   -4204.8533    -611.7385   -1001.2078    29.809087   -863.81679    16.443555    16.443555    82.217776 
   17700    794.86571   -4069.5458    -4200.956   -175.30449   -838.78424    103.07224    209.79852    16.443428    16.443428    82.217139 
   17800    800.02033   -4069.5436    -4201.806    88.750424    1364.9809   -1357.3203    258.59067    16.443012    16.443012     82.21506 
   17900    800.99981   -4069.5387    -4201.963   -59.772367   -534.94943    606.19693    -250.5646    16.442773    16.442773    82.213863 
   18000    812.25908   -4069.5336   -4203.8193   -77.802471   -1226.9257   -313.78208    1307.3004    16.442677    16.442677    82.213385 
   18100    795.38964   -4069.5435   -4201.0402    162.70303    556.46202   -534.13688    465.78396    16.442675    16.442675    82.213373 
   18200    797.06201   -4069.5421   -4201.3153    46.259909   -100.07755   -603.51957    842.37684    16.443119    16.443119    82.215595 
   18300    805.49574   -4069.5508   -4202.7184   -244.15516     108.7961     -860.402     19.14041    16.443389    16.443389    82.216947 
   18400    793.02304   -4069.5574   -4200.6629    259.98241   -1097.8629    1012.3119     865.4982    16.443376    16.443376    82.216879 
   18500    806.50475   -4069.5588   -4202.8932   -215.79835   -41.762564    313.09659   -918.72909     16.44347     16.44347    82.217351 
   18600    800.10001   -4069.5726   -4201.8481   -52.523063   -1298.6185   -27.295732    1168.3451    16.443155    16.443155    82.215773 
   18700    802.19019   -4069.5899    -4202.211   -142.97452   -876.17142   -191.16449    638.41235    16.442449    16.442449    82.212247 
   18800    804.55609   -4069.5959   -4202.6081    251.69487    1449.2026   -245.37517   -448.74282    16.442101    16.442101    82.210503 
   18900    778.26597   -4069.6124   -4198.2782    626.00968    846.21935    537.53178    494.27791    16.442202    16.442202    82.211011 
   19000    806.85385   -4069.6167   -4203.0088    106.04125    426.43082    -576.5621    468.25503    16.442941    16.442941    82.214707 
   19100    784.57501   -4069.6364   -4199.3453    360.52746    766.60679    219.15939    95.816207    16.443715    16.443715    82.218575 
   19200    795.68029   -4069.6527   -4201.1975   -2.0251462   -787.59771     259.1135    522.40877    16.444454    16.444454    82.222271 
   19300     815.5096   -4069.6558   -4204.4789   -489.83021   -1022.2434     586.3752   -1033.6225    16.444969    16.444969    82.224845 
   19400    792.24495   -4069.6563   -4200.6331    8.0803324   -751.59266    1028.3983   -252.56468    16.445112    16.445112    82.225558 
   19500    812.75603   -4069.6633   -4204.0311   -542.16191    773.91354   -1282.6225   -1117.7768    16.444896    16.444896    82.224479 
   19600    811.19511   -4069.6782    -4203.788   -395.14302    203.58772    74.210766   -1463.2275    16.444217    16.444217    82.221083 
   19700    802.02014   -4069.6949   -4202.2879    68.686717    179.77718    54.201216    -27.91825    16.443366    16.443366    82.216829 
   19800    786.48331   -4069.7242   -4199.7486    489.67214    1263.7991    315.19247   -109.97515    16.442374    16.442374    82.211868 
   19900    826.09082   -4069.7537   -4206.3261   -546.42598     189.7984   -1341.2217   -487.85464    16.441792    16.441792    82.208958 
   20000    805.47963   -4069.7776   -4202.9425   -33.290999    872.39173   -417.64912    -554.6156    16.441577    16.441577    82.207884 
   20100    771.94207   -4069.7983   -4197.4187    871.83428    750.15597    1111.1909    754.15594    16.442026    16.442026    82.210131 
   20200    813.45654   -4069.8137   -4204.2973   -297.36214    -259.1617   -848.80846    215.88374    16.442978    16.442978    82.214892 
   20300    795.63753   -4069.8261   -4201.3638    43.868939   -310.27287   -620.64921    1062.5289    16.444084    16.444084    82.220422 
   20400    814.97017   -4069.8306   -4204.5645   -437.83044   -651.29036   -146.96388   -515.23708    16.445177    16.445177    82.225886 
   20500    788.16846   -4069.8417   -4200.1447   -66.636462    503.14071   -503.56675   -199.48335    16.445695    16.445695    82.228476 
   20600    777.90318   -4069.8483   -4198.4541    211.61506   -920.42869    655.45638     899.8175    16.445424    16.445424    82.227121 
   20700      817.162   -4069.8379   -4204.9342   -518.84998   -539.74345    961.31191   -1978.1184    16.444697    16.444697    82.223483 
   20800    786.45644   -4069.8321    -4199.852    92.622161    140.97184     618.7226   -481.82795    16.443087    16.443087    82.215433 
   20900     794.7018   -4069.8114   -4201.1945    331.59805    596.85089    1007.9833   -610.03999    16.441475    16.441475    82.207373 
   21000     818.6674   -4069.7903   -4205.1355   -172.04118   -455.56059    321.29726   -381.86021    16.440322    16.440322     82.20161 
   21100    802.75617   -4069.7792   -4202.4938    326.90491    60.942985    258.69149    661.08027    16.439872    16.439872     82.19936 
   21200    792.08413   -4069.7773   -4200.7276    694.43057   -309.14579    629.24451     1763.193    16.440237    16.440237    82.201187 
   21300     807.3915   -4069.7748   -4203.2558    40.171965   -569.69172   -81.070715    771.27833     16.44152     16.44152    82.207598 
   21400    802.68048   -4069.7752   -4202.4773   -106.57201   -1404.1481    213.94187    870.49014    16.443377    16.443377    82.216887 
   21500    799.70791   -4069.7754   -4201.9861    -73.23601   -729.77177   -238.81412    748.87786    16.444984    16.444984    82.224921 
   21600    789.03393   -4069.7767   -4200.2227   -60.848689    39.528277   -343.56385    121.48951    16.445942    16.445942     82.22971 
   21700    822.31041   -4069.7592   -4205.7067   -874.31226   -1722.5824   -1187.8191    287.46474    16.446394    16.446394    82.231969 
   21800     793.0902   -4069.7546   -4200.8712    -216.9812    250.75986   -492.70023   -409.00321    16.445722    16.445722    82.228608 
   21900    790.88661   -4069.7485   -4200.5008    1.7510965   -83.859075   -166.83132    255.94369    16.444262    16.444262    82.221311 
   22000    812.85365   -4069.7333   -4204.1173   -281.22714    -192.8206   -815.80303    164.94222    16.442534    16.442534    82.212672 
   22100    801.07944   -4069.7101   -4202.1475    131.39575   -303.96497    494.81685    203.33538    16.441157    16.441157    82.205783 
   22200    811.07706   -4069.6953   -4203.7856    106.31254   -668.79165    336.79159    650.93769    16.440323    16.440323    82.201615 
   22300    804.13865   -4069.6895   -4202.6327    76.715479    42.163737    705.35907   -517.37637    16.440433    16.440433    82.202165 
   22400    774.49703   -4069.6859   -4197.7286    1043.2449   -381.13168    2187.8123    1323.0542    16.441192    16.441192    82.205959 
   22500    792.65435   -4069.6858   -4200.7303     139.1699    194.57161   -685.93848    908.87656    16.442677    16.442677    82.213384 
   22600    792.47107   -4069.6706   -4200.6848    211.56048   -315.38688   -175.55737    1125.6257    16.444502    16.444502    82.222512 
   22700    813.29639   -4069.6683   -4204.1255   -795.02235   -1141.0574   -1033.7953   -210.21439    16.445813    16.445813    82.229067 
   22800    800.29673   -4069.6706   -4201.9786   -279.81354    452.49062   -840.00274   -451.92849    16.445923    16.445923    82.229613 
   22900    773.52606   -4069.6765   -4197.5588    539.67805    1026.7449   -304.04439    896.33361    16.445067    16.445067    82.225337 
   23000    797.11154    -4069.661   -4201.4425    42.568937    -456.2684   -395.90759     979.8828    16.444306    16.444306    82.221528 
   23100    798.04507   -4069.6502    -4201.586   -40.707676   -755.98356     -460.564    1094.4245    16.443421    16.443421    82.217107 
   23200    789.57144   -4069.6454   -4200.1803    366.24634    697.12428   -580.24028    981.85501    16.442422    16.442422    82.212109 
   23300    796.45529   -4069.6505   -4201.3235     311.8806    1121.0004   -641.24207    455.88343    16.441631    16.441631    82.208156 
   23400    808.76864     -4069.65   -4203.3586   -56.757703   -209.05861   -785.87856    824.66406    16.441738    16.441738     82.20869 
   23500    802.66721   -4069.6626   -4202.3625   -2.0060293   -459.46355    142.62085    310.82461    16.442223    16.442223    82.211115 
   23600    800.87336   -4069.6729   -4202.0763    45.843748   -311.36482    143.02643    305.86964    16.443135    16.443135    82.215673 
   23700    791.53396   -4069.6764   -4200.5357   -75.278979    -1159.059    689.59719    243.62492    16.444091    16.444091    82.220457 
   23800    788.05245   -4069.6789   -4199.9626    504.20355   -863.11634    986.64699      1389.08    16.444522    16.444522    82.222609 
   23900      802.488   -4069.6865   -4202.3568   -254.85529    295.06846   -1530.1345    470.50014    16.444827    16.444827    82.224133 
   24000    806.16387   -4069.6983   -4202.9763   -83.146329   -1300.9201     1467.001   -415.51995    16.444584    16.444584    82.222922 
   24100     793.5739   -4069.7024    -4200.899   -40.516362   -512.92192    84.295697    307.07714    16.444152    16.444152    82.220758 
   24200    810.01811   -4069.7082   -4203.6234   -293.92718   -663.74809   -161.27035   -56.763101    16.443454    16.443454    82.217269 
   24300    787.42492   -4069.7319   -4199.9119    310.67866   -25.589597    935.97928    21.646306    16.442217    16.442217    82.211087 
   24400    819.18628   -4069.7456   -4205.1766   -104.11955   -1586.9693    420.41795    854.19268    16.441476    16.441476    82.207378 
   24500    780.62887   -4069.7702   -4198.8267    716.97253    1699.4127    352.50688    98.997973    16.441239    16.441239    82.206195 
   24600    815.42192   -4069.7895   -4204.5981   -142.66234    584.82251   -105.62608   -907.18344    16.441866    16.441866    82.209331 
   24700    788.20063   -4069.8028   -4200.1111    411.74647   -895.82388    931.97873    1199.0846    16.442914    16.442914    82.214571 
   24800    794.88593    -4069.815   -4201.2285    144.04967   -411.86327     729.7264    114.28588    16.444151    16.444151    82.220757 
   24900     788.2165   -4069.8216   -4200.1325    204.41971    298.95617   -688.05016    1002.3531    16.445263    16.445263    82.226316 
   25000    786.26129   -4069.8305   -4199.8182    122.59079   -541.41241    423.71153    485.47324    16.445951    16.445951    82.229753 
   25100    781.47988   -4069.8309    -4199.028   -34.451208    -1736.652    233.66125    1399.6372    16.446192    16.446192    82.230962 
   25200    825.06243   -4069.8445   -4206.2469   -903.98293    263.95135   -1678.0753   -1297.8248    16.445198    16.445198    82.225988 
   25300     783.8728   -4069.8614   -4199.4542    491.78956    710.76355    365.13253     399.4726    16.443332    16.443332    82.216662 
   25400    816.46002   -4069.8686   -4204.8488   -71.118346    18.975916    870.73179   -1103.0627    16.441657    16.441657    82.208283 
   25500    781.23587   -4069.8768   -4199.0337    799.87605    2482.0085   -580.24803    497.86765    16.440654    16.440654    82.203268 
   25600    824.43532   -4069.8732   -4206.1719    -212.9341   -739.08678    486.52296   -386.23847    16.440714    16.440714    82.203572 
   25700     821.8489   -4069.8844   -4205.7555   -289.09658   -707.37344    -345.2595    185.34321    16.441151    16.441151    82.205753 
   25800    800.21598   -4069.9015   -4202.1961    31.935804    408.12222   -424.35064    112.03584    16.442025    16.442025    82.210124 
   25900     807.7698   -4069.9213   -4203.4648   -18.854758   -157.45224    -7.639262    108.52723    16.443134    16.443134     82.21567 
   26000     775.2642   -4069.9372   -4198.1067    488.59365     371.9129    801.18992    292.67812    16.444502    16.444502     82.22251 
   26100    794.32536   -4069.9333   -4201.2541   -247.06936   -797.40283    851.37737   -795.18261    16.445925    16.445925    82.229626 
   26200    773.77348   -4069.9467   -4197.8698     484.4467   -285.54559    1175.9477    562.93797    16.446098    16.446098    82.230492 
   26300    825.84473   -4069.9344   -4206.4661   -914.56771    -1731.311    -451.5726   -560.81952    16.446103    16.446103    82.230514 
   26400    771.05056    -4069.947     -4197.42    665.04922   -390.60071    2162.7444    223.00396    16.444745    16.444745    82.223727 
   26500    835.32069   -4069.9478   -4208.0462   -864.45277   -1198.0428   -775.97484   -619.34064    16.443451    16.443451    82.217255 
   26600    797.46779   -4069.9614   -4201.8018    321.95031     -13.2592    259.64762    719.46251    16.442084    16.442084    82.210419 
   26700     798.2334   -4069.9816   -4201.9486    204.36402    13.806328    367.43285    231.85289    16.441059    16.441059    82.205294 
   26800    806.09605   -4069.9987   -4203.2655    159.34028     727.0507    214.12319   -463.15306    16.440746    16.440746    82.203728 
   26900    780.25304   -4070.0279   -4199.0222    656.79093   -346.36239    1034.9866    1281.7486    16.440987    16.440987    82.204933 
   27000    811.81689   -4070.0393   -4204.2519   -243.49957    148.68659     127.5356   -1006.7209      16.4418      16.4418    82.208998 
   27100    795.12506   -4070.0505   -4201.5035   -132.86183   -1368.0211    1093.1808   -123.74524    16.442506    16.442506    82.212532 
   27200    772.79335   -4070.0474   -4197.8085    761.27061   -31.052578    1382.3664    932.49799    16.442945    16.442945    82.214724 
   27300     800.2479   -4070.0476   -4202.3475    74.819509   -313.34498    1006.6534   -468.84989    16.443248    16.443248    82.216241 
   27400    809.40771   -4070.0466   -4203.8609   -243.93575    250.54916   -193.68775   -788.66866    16.443559    16.443559    82.217797 
   27500    801.49915   -4070.0408   -4202.5476   -269.86894    895.72815    93.841747   -1799.1767    16.443728    16.443728    82.218641 
   27600    812.21035   -4070.0382   -4204.3158   -572.42549   -144.49372    -1150.538   -422.24474    16.443373    16.443373    82.216866 
   27700     811.6729   -4070.0292    -4204.218   -432.39047   -11.208983   -643.01129   -642.95116    16.442584    16.442584     82.21292 
   27800    785.01558   -4070.0019   -4199.7836    487.51905    1028.1048    105.60125    328.85106    16.441993    16.441993    82.209963 
   27900    808.57515   -4069.9762   -4203.6529    55.962182     166.6314   -448.84258    450.09773    16.441909    16.441909    82.209544 
   28000      815.874   -4069.9641   -4204.8474   -170.72873   -127.36358   -352.35713   -32.465477    16.442158    16.442158    82.210791 
   28100    796.57772   -4069.9709   -4201.6641     312.5127    474.21544   -440.38587    903.70851    16.442454    16.442454    82.212272 
   28200    767.52865   -4069.9869   -4196.8776     663.4333    237.76644     321.2874     1431.246    16.442748    16.442748    82.213738 
   28300    808.57002   -4069.9889   -4203.6647   -215.50436   -270.86132   -783.84156     408.1898    16.443138    16.443138    82.215692 
   28400    778.31393   -4069.9826   -4198.6564    571.49863    97.041283    -204.1037    1821.5583    16.443575    16.443575    82.217874 
   28500    816.33123   -4069.9557   -4204.9147   -731.91346    -1822.459   -693.98052    320.69916    16.444491    16.444491    82.222456 
   28600    790.16846   -4069.9412   -4200.5748    40.812822   -1806.9313     564.1236    1365.2462    16.444506    16.444506     82.22253 
   28700     808.5366   -4069.9139   -4203.5841   -536.61213   -446.68276   -615.28624   -547.86739    16.444342    16.444342    82.221708 
   28800    809.13093   -4069.8809   -4203.6495   -405.06218    -164.2822   -858.92127   -191.98308    16.443657    16.443657    82.218286 
   28900    787.13749   -4069.8672   -4199.9997    250.23783    1527.6942   -231.96475     -545.016    16.442256    16.442256    82.211279 
   29000    812.50206   -4069.8442   -4204.1701    102.99799    -431.1041   -88.065009     828.1631    16.441239    16.441239    82.206194 
   29100    809.20037   -4069.8396   -4203.6196   -47.125738   -232.89697    -952.1415    1043.6613      16.4405      16.4405    82.202498 
   29200    789.14111   -4069.8305   -4200.2942    340.37566    1104.2542    187.21361   -270.34081    16.440573    16.440573    82.202863 
   29300    795.07253   -4069.8202   -4201.2646    238.08268    722.61649   -1194.0377    1185.6692    16.441277    16.441277    82.206384 
   29400    800.16377   -4069.8112   -4202.0972    214.91229   -446.84776   -37.424397     1129.009    16.442362    16.442362    82.211812 
   29500    788.44651   -4069.8203   -4200.1693    174.91089    334.48811    -328.0553    518.29987    16.443261    16.443261    82.216304 
   29600    815.92135   -4069.8241   -4204.7152   -510.80287   -144.03956   -1003.2016   -385.16748    16.444197    16.444197    82.220984 
   29700    792.34579   -4069.8333   -4200.8268   -47.354799   -597.73908    -228.5044    684.17908    16.444555    16.444555    82.222773 
   29800    792.61067   -4069.8343   -4200.8717    124.23183   -276.33023     302.8913    346.13441     16.44438     16.44438    82.221899 
   29900    812.01683   -4069.8286   -4204.0743   -511.86037   -1187.1363    -593.2106     244.7658    16.443827    16.443827    82.219137 
   30000    803.56547   -4069.8247   -4202.6731    183.42677    961.03647    297.35409   -708.11025    16.442921    16.442921    82.214604 
   30100    801.62402   -4069.8298   -4202.3573   -1.5186726   -1290.0678   -621.33258    1906.8444    16.442298    16.442298    82.211488 
   30200    807.29878   -4069.8296   -4203.2953    11.248843   -1145.8329   -164.42877    1344.0082    16.442234    16.442234    82.211169 
   30300    788.97025   -4069.8337   -4200.2692    251.72644    1346.2866   -421.01235   -170.09493      16.4426      16.4426    82.213002 
   30400    801.17385   -4069.8371   -4202.2901   -224.27225   -632.90447   -27.511124   -12.401158    16.443245    16.443245    82.216224 
   30500    804.35703   -4069.8442   -4202.8235   -298.37936   -842.34577    106.36365   -159.15594    16.443482    16.443482    82.217412 
   30600    797.35821   -4069.8493   -4201.6715   -33.210234   -408.49186    360.75735   -51.896193      16.4434      16.4434    82.216998 
   30700    818.22083    -4069.838   -4205.1093   -541.96148   -1385.1717   -202.95222   -37.760535    16.443301    16.443301    82.216505 
   30800    794.87404   -4069.8424   -4201.2539    126.16789    521.49729    793.97092   -936.96453    16.442808    16.442808    82.214039 
   30900     801.7358   -4069.8318   -4202.3778   -167.32926   -621.67506   -216.46834    336.15562     16.44268     16.44268    82.213398 
   31000    796.23103   -4069.8235   -4201.4593    309.36911   -450.76407    549.54568    829.32573    16.442465    16.442465    82.212325 
   31100     799.6813   -4069.8154   -4202.0217    40.282906    336.71455   -388.25803    172.39221    16.442679    16.442679    82.213394 
   31200     791.7183   -4069.8174   -4200.7072    280.82069    807.67256    56.049374    -21.25987     16.44302     16.44302    82.215099 
   31300    801.90042   -4069.8066   -4202.3798   -122.35022   -397.53695    230.88009    -200.3938    16.443856    16.443856    82.219282 
   31400    805.40574   -4069.7919   -4202.9446   -266.45102    761.16201   -796.34487    -764.1702    16.444522    16.444522    82.222612 
   31500    807.13076   -4069.7934   -4203.2313    -469.1968    -341.7447   -335.35865   -730.48703    16.444423    16.444423    82.222116 
   31600     793.8258   -4069.7933   -4201.0315    153.05374    56.941151    407.83547   -5.6153963    16.443714    16.443714     82.21857 
   31700    786.64465   -4069.7972   -4199.8482    464.71372    253.56726     1667.039   -526.46508    16.442705    16.442705    82.213523 
   31800    802.89824   -4069.7998   -4202.5379   -17.863316    839.74083   -864.89758   -28.433195    16.442004    16.442004     82.21002 
   31900    793.98365   -4069.8099   -4201.0742    250.39252    439.83441    1232.8624   -921.51925    16.441627    16.441627    82.208133 
   32000    772.60231   -4069.8026   -4197.5321    612.09598    -285.1054    733.65567    1387.7377    16.442115    16.442115    82.210577 
   32100     792.9044    -4069.791   -4200.8769    52.819234    100.59284   -638.20954     696.0744    16.443138    16.443138    82.215692 
   32200    803.97501   -4069.7841   -4202.7003   -284.04233    169.63308   -506.90099   -514.85907    16.443989    16.443989    82.219944 
   32300    781.58777   -4069.7661   -4198.9811    297.99468    -265.4512     504.1398    655.29546    16.444595    16.444595    82.222977 
   32400    789.77218   -4069.7298   -4200.2979    7.7142137    196.12369    337.46396   -510.44501     16.44504     16.44504    82.225201 
   32500    813.32967    -4069.698   -4204.1607   -544.19707   -343.59802   -1210.7733   -78.219858    16.444674    16.444674    82.223371 
   32600    794.21021   -4069.6754   -4200.9772     52.69699    459.44292   -1045.3643    744.01239     16.44359     16.44359    82.217951 
   32700     806.4783   -4069.6537   -4202.9837    75.589749    271.01342    637.87459   -682.11877    16.442434    16.442434     82.21217 
   32800    800.14051   -4069.6354   -4201.9176    205.60282    308.16632   -134.62006    443.26221    16.441581    16.441581    82.207903 
   32900    784.96643   -4069.6297   -4199.4033    725.57916    941.21674     357.4045    878.11622    16.441249    16.441249    82.206244 
   33000    840.43233    -4069.618   -4208.5614   -771.23379    -307.0094   -1730.5496   -276.14231    16.441781    16.441781    82.208906 
   33100     789.1349   -4069.6378   -4200.1006    427.03131    742.23613   -333.77045    872.62824    16.442009    16.442009    82.210043 
   33200    810.40915   -4069.6397   -4203.6195   -284.97151    62.185962    -294.5296   -622.57089    16.442751    16.442751    82.213754 
   33300     805.8122   -4069.6571   -4202.8769   -244.36692    -186.0234    419.78835    -966.8657    16.443033    16.443033    82.215165 
   33400    803.00648   -4069.6757   -4202.4317   -221.67203   -129.47727   -66.399354   -469.13948    16.443126    16.443126    82.215631 
   33500    787.13607   -4069.6823   -4199.8145    388.53373    80.248832    334.26663    751.08572    16.443293    16.443293    82.216467 
   33600    793.74751   -4069.6864   -4200.9117    321.09927   -231.26027      751.744    442.81407     16.44349     16.44349    82.217448 
   33700    801.45325   -4069.6924   -4202.1917    -205.3262   -502.00928    417.16089    -531.1302    16.443824    16.443824    82.219122 
   33800     808.5175   -4069.6857   -4203.3528   -257.82104   -915.14884    1186.3129   -1044.6272    16.444191    16.444191    82.220953 
   33900    792.56364   -4069.6921   -4200.7217   -45.621931   -970.41021    1087.4435   -253.89904    16.443869    16.443869    82.219347 
   34000    809.24618   -4069.7066   -4203.4942   -331.65142   -282.37934    30.037466   -742.61239    16.442822    16.442822    82.214111 
   34100    816.95353   -4069.7214   -4204.7832   -188.17432   -516.23606   -128.10436    79.817448    16.441594    16.441594    82.207972 
   34200    775.68305   -4069.7356   -4197.9745    949.39254    399.30915    1253.0992    1195.7693    16.440963    16.440963    82.204815 
   34300     781.3269   -4069.7271    -4198.899    818.15168    943.22579     875.1309    636.09834    16.441627    16.441627    82.208135 
   34400    796.12713   -4069.7142   -4201.3329   -6.5247641   -304.96007   -10.121107    295.50689    16.443084    16.443084    82.215422 
   34500    821.89588   -4069.7105   -4205.5894   -593.19157    -833.0698   -648.75076   -297.75416    16.444514    16.444514     82.22257 
   34600    810.68184   -4069.7193   -4203.7442   -810.39508   -1808.8208   -907.87799    285.51351    16.445389    16.445389    82.226947 
   34700    820.58442   -4069.7107   -4205.3728   -751.60751   -400.98047   -1457.5008   -396.34129    16.445597    16.445597    82.227987 
   34800    810.02795   -4069.7152    -4203.632    -443.8118   -266.18319   -807.41983   -257.83238    16.444728    16.444728    82.223641 
   34900    797.41609   -4069.7226   -4201.5544    310.36938    505.85099   -163.82617    589.08333    16.443482    16.443482     82.21741 
   35000    802.64375   -4069.7346   -4202.4307    174.81079   -359.73273   -468.23305    1352.3981    16.442279    16.442279    82.211396 
   35100    819.04267   -4069.7317   -4205.1389   -416.80249   -1543.7641   -114.24102    407.59769    16.441968    16.441968    82.209841 
   35200    796.68276   -4069.7305    -4201.441    385.36045   -261.94785    320.63876    1097.3904    16.441986    16.441986    82.209929 
   35300    820.44414    -4069.733   -4205.3719   -454.69963   -2007.6592   -259.25079    902.81111    16.442656    16.442656    82.213282 
   35400    800.31237   -4069.7475   -4202.0581   -54.869473   -690.39371   -653.80704    1179.5923    16.443307    16.443307    82.216536 
   35500    790.40502   -4069.7638   -4200.4365    180.67821   -606.56965   -776.24518    1924.8495    16.443857    16.443857    82.219286 
   35600    771.30415   -4069.7675   -4197.2824    684.18513    382.36834    1237.8837    432.30336    16.444232    16.444232     82.22116 
   35700    778.36504   -4069.7706   -4198.4529    353.07402   -185.42419    562.91844    681.72781    16.444441    16.444441    82.222207 
   35800     801.3975   -4069.7687   -4202.2587   -94.485565    -876.5186   -1168.7999    1761.8618    16.444311    16.444311    82.221555 
   35900     808.1418   -4069.7738   -4203.3788   -351.95206   -1192.2586   -375.36412    511.76654    16.443632    16.443632    82.218161 
   36000    810.30953   -4069.7753   -4203.7387   -338.37757   -1532.2957    106.13221    411.03082    16.442648    16.442648    82.213238 
   36100    826.73467   -4069.7721    -4206.451   -549.14577   -1548.0654   -454.18511    354.81316    16.441871    16.441871    82.209355 
   36200    806.23183   -4069.7792   -4203.0684    301.35193    320.07638   -436.09855    1020.0779    16.441364    16.441364    82.206819 
   36300    820.05131    -4069.792    -4205.366    -321.5315   -1496.3748   -84.587134    616.36746    16.441703    16.441703    82.208513 
   36400    787.04143   -4069.8044    -4199.921    301.91667   -1184.1492    458.54275    1631.3564    16.442662    16.442662    82.213312 
   36500    838.66347   -4069.8057   -4208.4566   -965.39013   -681.57101   -877.09705   -1337.5023    16.444201    16.444201    82.221004 
   36600    801.60247   -4069.8104   -4202.3344   -448.25557   -1597.7224    152.80673    100.14893    16.445695    16.445695    82.228473 
   36700    797.14978   -4069.8059   -4201.5937   -288.16768   -539.51346   -413.59523    88.605648     16.44663     16.44663    82.233151 
   36800    798.69088   -4069.8046   -4201.8472   -313.91438   -43.938701   -96.287685   -801.51675    16.446502    16.446502     82.23251 
   36900    805.87604   -4069.8087   -4203.0392   -630.31094    72.177862   -1447.9447   -515.16602    16.445377    16.445377    82.226883 
   37000    821.45677   -4069.8137     -4205.62   -496.51826    761.34933   -923.08435   -1327.8198    16.443326    16.443326    82.216632 
   37100     781.7858   -4069.8069   -4199.0547     669.0961    211.09394    979.17784    817.01653    16.441593    16.441593    82.207964 
   37200    789.87273    -4069.809   -4200.3937    727.35996    98.436908    1710.6908    372.95218    16.440297    16.440297    82.201483 
   37300    790.31421   -4069.8355   -4200.4932    681.54059     108.6992     1093.266    842.65653    16.439558    16.439558    82.197791 
   37400    793.90673   -4069.8453   -4201.0969    337.03764   -712.19181    881.88209    841.42264    16.440352    16.440352     82.20176 
   37500    805.88882   -4069.8479   -4203.0804    28.087343   -1479.0001    446.66582    1116.5963    16.441934    16.441934    82.209672 
   37600    801.45292   -4069.8462   -4202.3454   -105.43333   -401.19951   -942.27407    1027.1736    16.443888    16.443888    82.219441 
   37700    777.64983   -4069.8385   -4198.4024    314.78414   -913.96273     744.4117    1113.9034    16.445546    16.445546    82.227732 
   37800    805.84437   -4069.8356   -4203.0608   -769.13749    -2008.723   -388.94575     90.25628    16.446372    16.446372    82.231861 
   37900    791.95945   -4069.8259   -4200.7556   -76.936512   -827.38355    391.92918    204.64484    16.445862    16.445862    82.229312 
   38000     782.4626   -4069.8114   -4199.1711     35.89338    -575.3031    5.6836423    677.29959     16.44453     16.44453    82.222648 
   38100    797.50785   -4069.7836   -4201.6306    81.406339     1099.396   -410.48352    -444.6935    16.442607    16.442607    82.213037 
   38200    816.63592   -4069.7595   -4204.7688   -203.84793    266.05758   -439.62435   -437.97702    16.440725    16.440725    82.203623 
   38300    800.05543    -4069.744   -4202.0122    354.53005    232.45293    258.69211     572.4451    16.439157    16.439157    82.195786 
   38400    782.48203   -4069.7328   -4199.0957    951.36641    1275.1555    1127.8729    451.07076    16.438556    16.438556    82.192781 
   38500    810.16882   -4069.7236   -4203.6637    63.117177    920.94715   -150.20825   -581.38737     16.43949     16.43949    82.197452 
   38600    788.50815   -4069.7116   -4200.0707     526.9561    507.43604    145.67728    927.75498    16.441529    16.441529    82.207643 
   38700     803.2727   -4069.6933   -4202.4934   -235.41285   -428.57953    376.73138   -654.39041    16.444234    16.444234    82.221168 
   38800    808.94337   -4069.6719   -4203.4094   -590.85323   -978.99312   -892.46262    98.896044    16.446605    16.446605    82.233023 
   38900    757.50181   -4069.6545   -4194.8875    553.74745    365.75161     808.6348    486.85595    16.447683    16.447683    82.238414 
   39000    826.22921   -4069.6229   -4206.2182   -1380.0795   -1463.6733   -1779.7308   -896.83423    16.447873    16.447873    82.239365 
   39100    785.43037   -4069.5985   -4199.4488    -94.96209   -855.95209   -530.83652    1101.9023    16.446286    16.446286    82.231429 
   39200    820.76016    -4069.572   -4205.2631   -646.37451   -1487.6248   -412.77937   -38.719358    16.443753    16.443753    82.218763 
   39300    788.77146    -4069.549   -4199.9516    657.58313    917.95366    851.57281    203.22292    16.440998    16.440998    82.204992 
   39400    808.02248   -4069.5457    -4203.131     358.8824    193.50836    639.06126    244.07759    16.438863    16.438863    82.194314 
   39500    812.94934    -4069.536   -4203.9358     296.2159   -575.37242    655.20235    808.81776    16.438486    16.438486    82.192432 
   39600    792.44544   -4069.5331   -4200.5431    676.66193    423.47245    758.21249    848.30085    16.439631    16.439631    82.198157 
   39700    792.88745   -4069.5453   -4200.6284    497.22418    192.92969    714.85117    583.89169    16.441784    16.441784    82.208921 
   39800    816.43142   -4069.5492   -4204.5247   -500.32296   -334.05582   -570.22942   -596.68364    16.444822    16.444822     82.22411 
   39900    796.26142    -4069.561   -4201.2019   -421.06746    -3.719149   -677.88543   -581.59778    16.447278    16.447278    82.236392 
   40000     798.0589   -4069.5715   -4201.5096   -438.95377   -741.39258    56.222666   -631.69139    16.448403    16.448403    82.242013 
   40100    791.96065   -4069.5858   -4200.5157   -444.96919    676.77452   -1660.2012   -351.48089    16.447807    16.447807    82.239033 
   40200    796.79505   -4069.5917   -4201.3208   -153.98548    322.29188   -1151.9307    367.68237    16.445822    16.445822    82.229111 
   40300    834.47835    -4069.597   -4207.5561   -900.69414   -2173.6215    -215.2365   -313.22444    16.443437    16.443437    82.217183 
   40400    795.66029   -4069.6151   -4201.1566    369.62627   -178.63778    564.28717    723.22943     16.44087     16.44087    82.204349 
   40500    818.69464   -4069.6165   -4204.9662   -43.340305    809.90878   -327.88972   -612.03998    16.439504    16.439504    82.197521 
   40600    785.63446   -4069.6273   -4199.5113    779.02644    1084.0353    448.07899      804.965    16.439167    16.439167    82.195835 
   40700    793.98296   -4069.6482   -4200.9124    190.55138    131.89237    227.27267    212.48909    16.439998    16.439998    82.199991 
   40800    795.85916   -4069.6674   -4201.2418    485.27656    712.52676    226.40291    516.89999    16.441641    16.441641    82.208204 
   40900    808.07292   -4069.6987   -4203.2924   -425.93054   -372.83944   -915.75635    10.804181    16.443509    16.443509    82.217547 
   41000    794.49837   -4069.7316    -4201.081   -242.90339    353.02242      -1822.8    741.06741    16.444923    16.444923    82.224617 
   41100    785.10266   -4069.7723   -4199.5684   -10.329335   -167.55239    674.40233   -537.83794    16.445127    16.445127    82.225635 
   41200    793.99022   -4069.7949   -4201.0603   -190.91092    -117.8227   -1016.9628    562.05272    16.444655    16.444655    82.223277 
   41300    785.70569   -4069.8115   -4199.7073     434.2329    314.15383   -182.30505    1170.8499    16.443699    16.443699    82.218497 
   41400    806.92351   -4069.8318   -4203.2354   -174.95941    753.75417    517.73315   -1796.3655    16.442759    16.442759    82.213793 
   41500    793.39535    -4069.866   -4201.0331    156.00157    1192.9049   -270.40685   -454.49331    16.441758    16.441758    82.208788 
   41600     806.6098   -4069.8808   -4203.2326    212.96957    1018.5713   -525.40043    145.73786    16.441364    16.441364    82.206821 
   41700    795.30985   -4069.9069   -4201.3905     230.6047    900.86582    528.35201   -737.40374    16.441324    16.441324    82.206621 
   41800    792.94234   -4069.9168   -4201.0089    341.97158   -442.63394    838.10851    630.44017    16.442116    16.442116     82.21058 
   41900    799.74943   -4069.9215   -4202.1391   -112.06339     -1105.26   -198.42263    967.49249    16.443287    16.443287    82.216437 
   42000    792.19357   -4069.9275   -4200.8959   -96.378785    -204.4157    -319.4365    234.71584    16.444133    16.444133    82.220664 
   42100    793.03651   -4069.9185   -4201.0262   -81.029942   -973.72162    746.33039   -15.698598    16.444573    16.444573    82.222864 
   42200     791.9749   -4069.9067   -4200.8389   -10.437923    324.64757   -1266.3875    910.42621      16.4442      16.4442    82.221002 
   42300     790.2415   -4069.9123   -4200.5579    177.27403   -535.14045    54.875947    1012.0866    16.442724    16.442724    82.213618 
   42400    806.51095    -4069.903   -4203.2384   -58.316668   -438.00424    73.825685    189.22855    16.441379    16.441379    82.206896 
   42500    805.34451   -4069.8932   -4203.0358    119.87973   -290.52116   -229.42065      879.581    16.440495    16.440495    82.202474 
   42600    815.46618   -4069.8804   -4204.6963   -50.473834   -285.40506   -83.880451    217.86401      16.4403      16.4403    82.201501 
   42700    816.96617   -4069.8752   -4204.9391    -188.2683   -859.26282    123.00097    171.45695    16.440728    16.440728    82.203638 
   42800    786.96147   -4069.8702   -4199.9736    319.05059   -385.54244     1046.118     296.5762    16.441754    16.441754    82.208772 
   42900    800.74421   -4069.8615   -4202.2435   -115.45235   -745.63542    673.13887   -273.86049    16.443251    16.443251    82.216254 
   43000     815.4461     -4069.85   -4204.6626   -753.13484   -918.30556   -360.80072   -980.29824    16.444707    16.444707    82.223537 
   43100    796.53028   -4069.8396    -4201.525   -308.48571    467.62658   -308.18409   -1084.8996    16.445433    16.445433    82.227165 
   43200    803.40806   -4069.8185   -4202.6409   -486.62488   -64.830239    104.20012   -1499.2445    16.445413    16.445413    82.227067 
   43300    796.42529    -4069.807    -4201.475   -264.32703     339.0962   -566.28498   -565.79231    16.444266    16.444266     82.22133 
   43400    799.05251   -4069.7864   -4201.8887    87.769591   -384.19908   -1617.5295    2265.0373    16.442738    16.442738    82.213689 
   43500    800.88001   -4069.7673   -4202.1718    259.19344   -317.30221    180.32678    914.55576    16.441332    16.441332    82.206659 
   43600    804.16661   -4069.7522   -4202.7001    245.17397   -1291.1889    945.71833    1080.9925    16.440825    16.440825    82.204125 
   43700    819.40252   -4069.7433     -4205.21   -355.34763   -269.14213   -221.90778   -574.99299    16.441299    16.441299    82.206494 
   43800    810.94879   -4069.7537   -4203.8228    81.510977   -188.36241    712.23721   -279.34187    16.441928    16.441928    82.209639 
   43900    816.00599   -4069.7532   -4204.6583   -419.96851    213.74621   -660.90611   -812.74563    16.443308    16.443308     82.21654 
   44000    765.44213   -4069.7575   -4196.3032    746.14053    812.17308   -443.83105    1870.0796    16.444467    16.444467    82.222335 
   44100    820.15392   -4069.7392   -4205.3301   -826.98295   -1433.3205   -644.54426   -403.08412     16.44576     16.44576    82.228802 
   44200    817.48239    -4069.728   -4204.8772   -651.11037    354.51777   -2060.4535   -247.39538    16.445937    16.445937    82.229686 
   44300    789.36415   -4069.7201   -4200.2207    69.820358   -757.96328    771.09879    196.32556    16.445187    16.445187    82.225936 
   44400    767.77558   -4069.7224   -4196.6539    731.96356     1316.002     937.2715   -57.382814    16.443467    16.443467    82.217333 
   44500    813.22632    -4069.702   -4204.1476   -363.16665   -1119.4397    39.039227   -9.0994928    16.442114    16.442114     82.21057 
   44600     790.8236     -4069.68   -4200.4219    507.53942   -288.78479    724.63339    1086.7697    16.441102    16.441102    82.205508 
   44700    779.30554    -4069.692   -4198.5297    772.72449     100.7363    1301.6036     915.8336    16.440318    16.440318    82.201589 
   44800    785.63558   -4069.6914   -4199.5756    762.15983   -236.38521    836.06889    1686.7958    16.440737    16.440737    82.203686 
   44900    791.90783   -4069.6846   -4200.6058    458.47726   -716.51938    1311.6332    780.31791    16.442329    16.442329    82.211645 
   45000    810.99004   -4069.6822   -4203.7581   -276.07106   -71.708305   -80.269859   -676.23502    16.444296    16.444296    82.221482 
   45100    793.91431   -4069.6875   -4200.9404   -133.72493   -408.82082    1280.8118   -1273.1658    16.445867    16.445867    82.229333 
   45200    795.95127   -4069.6932   -4201.2829   -236.69397   -151.72769   -256.53934   -301.81488    16.446679    16.446679    82.233393 
   45300      807.043   -4069.7023   -4203.1256   -604.70197   -943.71089    344.77503     -1215.17    16.446258    16.446258    82.231292 
   45400    813.94869   -4069.7284   -4204.2934   -478.21175   -611.73214   -508.21864   -314.68449    16.444418    16.444418    82.222092 
   45500     782.5427   -4069.7495   -4199.1224    393.23654    66.579959    342.22523    770.90443    16.442027    16.442027    82.210136 
   45600     802.4176   -4069.7495   -4202.4082    324.59102   -760.12429    294.71215    1439.1852    16.440327    16.440327    82.201636 
   45700    797.31873   -4069.7545   -4201.5702    246.51109    77.119758    922.32065   -259.90714    16.439596    16.439596    82.197981 
   45800    794.59608   -4069.7616   -4201.1272    476.67333   -261.41328    153.40285    1538.0304    16.439773    16.439773    82.198865 
   45900    795.10485   -4069.7726   -4201.2223    295.11899   -172.69554    849.08768    208.96483    16.440817    16.440817    82.204084 
   46000      794.543   -4069.7769   -4201.1337    48.189413    104.42191     99.37461   -59.228279    16.442428    16.442428    82.212141 
   46100    792.31407    -4069.783   -4200.7713    102.47173   -284.64758   -66.812445    658.87522     16.44396     16.44396    82.219798 
   46200    800.41385   -4069.7762   -4202.1036   -246.91618    83.499641   -987.44062    163.19245    16.445423    16.445423    82.227117 
   46300    804.50566   -4069.7734   -4202.7773   -652.33205   -996.45165   -636.86172   -323.68278    16.446154    16.446154    82.230772 
   46400    792.24711   -4069.7751   -4200.7524   -153.02444     309.9066   -400.68321    -368.2967    16.445637    16.445637    82.228185 
   46500    813.70144    -4069.775   -4204.2992   -794.09023    -817.6089   -1267.8978   -296.76394    16.444531    16.444531    82.222656 
   46600    818.65342   -4069.7703   -4205.1131    -595.0894   -1273.8987   -189.45814   -321.91134    16.443115    16.443115    82.215577 
   46700    786.88935   -4069.7833   -4199.8747    507.85792    446.04308    389.74928    687.78138    16.441255    16.441255    82.206277 
   46800    798.11439    -4069.786   -4201.7332    319.92359    -478.0857    954.25579    483.60069    16.440172    16.440172    82.200862 
   46900    790.95837    -4069.785   -4200.5492    498.68757   -240.94779    1590.6007    146.40979    16.440087    16.440087    82.200436 
   47000    797.35563   -4069.7725   -4201.5943     294.5098   -1388.5274    1489.4492    782.60757    16.441174    16.441174    82.205868 
   47100    797.77847   -4069.7684   -4201.6601    27.312244   -561.88767    598.23152    45.592883    16.442613    16.442613    82.213066 
   47200    800.65306   -4069.7659   -4202.1329   -307.71289   -1388.9044    404.87828    60.887405    16.443882    16.443882    82.219409 
   47300    785.80856   -4069.7653   -4199.6781    36.962844   -1687.0418   -85.646522    1883.5769    16.444571    16.444571    82.222853 
   47400    788.73581   -4069.7621   -4200.1588   -82.879029    447.24968    130.78651   -826.67328    16.444598    16.444598     82.22299 
   47500    791.66401   -4069.7402    -4200.621    -89.01996   -1417.1976    1292.9664    -142.8287    16.444209    16.444209    82.221043 
   47600    804.30922   -4069.7232   -4202.6946   -311.82407   -1321.2822   -186.93302      572.743    16.443272    16.443272     82.21636 
   47700    782.42736   -4069.7055   -4199.0594    416.77308    772.22399   -667.94874     1146.044     16.44192     16.44192    82.209599 
   47800    800.38377    -4069.677   -4201.9994     152.9821   -347.57066   -1265.4458    2071.9628    16.441168    16.441168    82.205841 
   47900    813.10731   -4069.6641   -4204.0901   -9.7264013   -50.331299    43.556972   -22.404877    16.440746    16.440746    82.203728 
   48000    792.00966   -4069.6513   -4200.5893    601.36047    739.31424    78.004228    986.76295    16.441014    16.441014    82.205071 
   48100    802.30862   -4069.6518   -4202.2925   -108.23128   -343.27295    79.277166   -60.698066    16.441828    16.441828     82.20914 
   48200    800.37432   -4069.6385   -4201.9594   -60.069237    -593.8244   -195.61191    609.22859    16.443064    16.443064    82.215318 
   48300    795.52021   -4069.6208   -4201.1391   -27.118605    351.96555   -946.68236    513.36099    16.444217    16.444217    82.221083 
   48400    791.46699   -4069.6217     -4200.47   -112.94082    8.0738142   -202.54145   -144.35482    16.444649    16.444649    82.223245 
   48500    789.67717   -4069.6135   -4200.1659   -228.43779   -749.98905   -235.52128    300.19695    16.444559    16.444559    82.222794 
   48600    783.14887   -4069.6098   -4199.0829    298.95923   -337.00734    216.68623    1017.1988     16.44358     16.44358    82.217901 
   48700    776.44099     -4069.59   -4197.9542    736.84045    1313.0243    212.24242    685.25463    16.442748    16.442748    82.213742 
   48800    798.91682   -4069.5703   -4201.6502     483.2144    1168.4276    840.05313   -558.83754    16.442359    16.442359    82.211794 
   48900    819.67946   -4069.5773   -4205.0898     -409.987    -66.09552   -888.79687   -275.06861    16.442339    16.442339    82.211696 
   49000    819.49629   -4069.5828    -4205.065   -295.96492    848.01085    -808.2605    -927.6451    16.442872    16.442872    82.214359 
   49100     789.3663   -4069.5835   -4200.0844    234.60675    191.99779   -314.05441    825.87686     16.44375     16.44375    82.218751 
   49200    798.41555   -4069.5882   -4201.5852   -21.393446   -580.87728    -191.9078    708.60475    16.444569    16.444569    82.222847 
   49300    832.44039    -4069.584   -4207.2061    -956.0443   -932.70218   -1805.1558   -130.27495    16.445291    16.445291    82.226455 
   49400    798.45073   -4069.5939   -4201.5968    34.959669   -29.482401    429.03844   -294.67704    16.445193    16.445193    82.225963 
   49500    772.03016   -4069.6058   -4197.2407    640.39358    1649.9447    498.08039   -226.84436    16.444631    16.444631    82.223157 
   49600    799.19983   -4069.6126   -4201.7393    43.106657    1299.1373   -614.98137   -554.83596    16.443951    16.443951    82.219754 
   49700    775.71763    -4069.641   -4197.8855    453.02486    800.45375    1245.3025   -686.68165     16.44266     16.44266    82.213298 
   49800    793.93487   -4069.6669   -4200.9232     566.7314    1783.9311    51.408399   -135.14529    16.441351    16.441351    82.206755 
   49900    775.93863   -4069.6899    -4197.971    991.03511    1500.7842     1745.037   -272.71582     16.44074     16.44074    82.203702 
   50000    826.76796   -4069.6916   -4206.3759   -384.55325   -910.17952   -280.13298    36.652745    16.441469    16.441469    82.207345 
Loop time of 247.887 on 1 procs for 50000 steps with 1280 atoms

Pair  time (%) = 219.427 (88.519)
Neigh time (%) = 19.6513 (7.92754)
Comm  time (%) = 3.30579 (1.33359)
Outpt time (%) = 0.111982 (0.0451744)
Other time (%) = 5.39071 (2.17466)

Nlocal:    1280 ave 1280 max 1280 min
Histogram: 1 0 0 0 0 0 0 0 0 0
Nghost:    4005 ave 4005 max 4005 min
Histogram: 1 0 0 0 0 0 0 0 0 0
Neighs:    48360 ave 48360 max 48360 min
Histogram: 1 0 0 0 0 0 0 0 0 0

Total # of neighbors = 48360
Ave neighs/atom = 37.7812
Neighbor list builds = 5000
Dangerous builds = 0
unfix		1

# Melt half the system
region  liquid block INF INF INF INF INF ${nzhalf}
region  liquid block INF INF INF INF INF 10
group	liquid_group region liquid
638 atoms in group liquid_group

# Heat up one side to Tmelt to make sure it is melted
fix 2 liquid_group npt temp ${Tmelt} ${Tmelt} 1 z 0 0 10 drag 1.0
fix 2 liquid_group npt temp 2000 ${Tmelt} 1 z 0 0 10 drag 1.0
fix 2 liquid_group npt temp 2000 2000 1 z 0 0 10 drag 1.0
run		${eqsteps}
run		50000
Memory usage per processor = 3.13778 Mbytes
Step Temp TotEng PotEng Press Pxx Pyy Pzz Lx Ly Lz 
   50000    826.76796   -4069.6916   -4206.3759   -384.55325   -910.17952   -280.13298    36.652745    16.441469    16.441469    82.207345 
   50100    817.59555   -4069.3226   -4204.4906   -159.45371    84.139668    -340.6455   -221.85529    16.441469    16.441469    82.207329 
   50200    820.17416    -4068.369   -4203.9632    23.924562    524.45586   -42.973589   -409.70859    16.441469    16.441469    82.207393 
   50300    817.69605   -4067.0883   -4202.2729     355.0388    82.841572    186.59717    795.67766    16.441469    16.441469    82.207596 
   50400    827.27526   -4065.8555   -4202.6237    404.08172    233.92344    1020.5353   -42.213596    16.441469    16.441469    82.207937 
   50500    842.49347   -4064.6986   -4203.9827    232.93622   -316.92152    881.53304    134.19714    16.441469    16.441469     82.20833 
   50600      825.817   -4063.5312   -4200.0583    959.50012    184.01269    1648.9344    1045.5533    16.441469    16.441469    82.208968 
   50700    820.11682   -4062.3192   -4197.9039    1133.1549    1229.3225    960.68746    1209.4547    16.441469    16.441469     82.21006 
   50800    834.72797   -4060.9951   -4198.9954    1193.3798    1454.7225    667.44828    1457.9686    16.441469    16.441469    82.211654 
   50900    846.48788   -4059.6478   -4199.5923    1185.4349    1237.3542    1344.2232    974.72739    16.441469    16.441469    82.213817 
   51000    847.67055   -4058.2904   -4198.4305      1351.12     2384.684     740.9771    927.69884    16.441469    16.441469    82.216534 
   51100    856.66366   -4056.9198   -4198.5466    1378.9873    1524.0476    1556.9292    1055.9853    16.441469    16.441469    82.219894 
   51200    844.38453   -4055.5188   -4195.1156    2135.4539    2566.0139    1454.8741    2385.4737    16.441469    16.441469    82.223859 
   51300    877.92198   -4054.1237   -4199.2651    1224.8713    1251.0766    983.42602    1440.1112    16.441469    16.441469    82.228753 
   51400    858.49328    -4052.704   -4194.6333       1930.3    1897.6736    1624.7841    2268.4423    16.441469    16.441469    82.234735 
   51500     862.4581   -4051.2703   -4193.8551    1932.3773    3094.3589    379.62195    2323.1509    16.441469    16.441469    82.241939 
   51600    875.98768   -4049.8225   -4194.6441    1893.9758    1603.2319    1766.2559    2312.4397    16.441469    16.441469    82.250255 
   51700    883.03223   -4048.3681   -4194.3542    1948.3257    886.47243    1805.8032    3152.7013    16.441469    16.441469    82.259802 
   51800    878.61675   -4046.9077   -4192.1639    2301.3982    1753.4139    2049.4812    3101.2994    16.441469    16.441469    82.270803 
   51900    890.56727   -4045.4168   -4192.6487    2099.4868    1442.8995    2448.9255    2406.6354    16.441469    16.441469    82.283093 
   52000    872.92917   -4043.9335   -4188.2494     2912.902    2489.3466    2222.8394    4026.5198    16.441469    16.441469    82.296523 
   52100    898.63884   -4042.4255   -4190.9918    2375.3205    2502.1644    2431.6906    2192.1064    16.441469    16.441469    82.311331 
   52200    894.78015   -4040.9227   -4188.8511    2815.7575    2405.0371    3614.7774     2427.458    16.441469    16.441469     82.32718 
   52300    897.24858   -4039.4225   -4187.7589    2978.2508    3123.0727    2909.8097    2901.8699    16.441469    16.441469    82.344227 
   52400    894.67337   -4037.8836   -4185.7943    3053.4449     2628.261    2811.8201    3720.2534    16.441469    16.441469    82.362424 
   52500    906.20103   -4036.3416   -4186.1581    2772.4465    2699.4797     2518.066    3099.7939    16.441469    16.441469    82.381895 
   52600    919.02135    -4034.784     -4186.72    2656.8976    2263.4465    3524.3087    2182.9376    16.441469    16.441469    82.402563 
   52700    928.89618   -4033.2463   -4186.8149    2457.7906       1979.2    2657.8381    2736.3336    16.441469    16.441469    82.424293 
   52800    920.98307   -4031.6776    -4183.938    2917.4152    2871.7584    2945.2689    2935.2182    16.441469    16.441469    82.447074 
   52900     914.9708   -4030.1018   -4181.3682    3169.2721    2729.0321     3893.807    2884.9773    16.441469    16.441469    82.470846 
   53000     905.5651   -4028.5121   -4178.2235    3446.0725    3113.0063     3660.521    3564.6901    16.441469    16.441469    82.495682 
   53100    938.37317   -4026.8957    -4182.031    2708.9851    2110.8537    3342.5426    2673.5588    16.441469    16.441469    82.521564 
   53200    944.83058   -4025.3064   -4181.5093    2479.6749    2082.3806     2796.868     2559.776    16.441469    16.441469    82.548435 
   53300    956.95202   -4023.6915   -4181.8984    2283.8581    2122.0042    2546.5681    2183.0019    16.441469    16.441469    82.576257 
   53400    961.16563   -4022.0461   -4180.9496    2485.3669    1999.2774    2923.1385    2533.6847    16.441469    16.441469    82.604907 
   53500    955.44394    -4020.428   -4178.3855    2857.1704    3191.1693    3155.9897    2224.3521    16.441469    16.441469    82.634566 
   53600    927.90409   -4018.7781   -4172.1826     3492.408    3908.9979    2995.7168    3572.5094    16.441469    16.441469    82.665071 
   53700    954.22617   -4017.1347   -4174.8909    2719.7747    2649.5575    2928.2551    2581.5116    16.441469    16.441469     82.69662 
   53800    953.04049   -4015.4715   -4173.0317    2938.5038    2960.8344    3132.6929    2721.9842    16.441469    16.441469    82.729037 
   53900    964.58549   -4013.8289   -4173.2978    2393.1463    1445.0699    3496.4511    2237.9178    16.441469    16.441469    82.762215 
   54000    970.91511   -4012.1488   -4172.6642    2587.5574     1676.184    3001.2196    3085.2686    16.441469    16.441469    82.796036 
   54100    992.95688   -4010.4492   -4174.6085    2071.3179    1548.8282    3159.7718    1505.3537    16.441469    16.441469    82.830638 
   54200    992.95346   -4008.7699   -4172.9287    2255.8341    2915.5617    3161.6563    690.28422    16.441469    16.441469    82.865615 
   54300    970.62129   -4007.0219   -4167.4886    2859.5791    2492.2976    3869.0958    2217.3437    16.441469    16.441469    82.900526 
   54400    997.21396   -4005.3367   -4170.1998    2128.0388     2828.754    2515.3086    1040.0539    16.441469    16.441469    82.935449 
   54500    1009.9998   -4003.6038   -4170.5807    1783.9788    2204.2369    2219.2003    928.49908    16.441469    16.441469    82.970329 
   54600    987.40429   -4001.8653   -4165.1066    2571.7072    3262.3531    3057.6612    1395.1072    16.441469    16.441469    83.005216 
   54700    1004.9126   -4000.1139   -4166.2498    2146.1283    2395.7451    1876.3288    2166.3111    16.441469    16.441469    83.040153 
[...]
  336300    800.81339   -4073.8024   -4206.1959   -283.59266    220.67392   -1108.3493    36.897389    16.430093    16.430093    82.225578 
  336400    791.25836   -4073.8044   -4204.6181   -90.944993   -618.44433    208.19093    137.41841    16.430062    16.430062    82.307109 
  336500    804.05495   -4073.8034   -4206.7328   -1469.7542   -1610.5208   -1579.3103   -1219.4315    16.429921    16.429921     82.39169 
  336600    767.26833   -4073.8029   -4200.6506   -274.32396   -762.50183   -6.7423918   -53.727669    16.429542    16.429542    82.385142 
  336700    773.35591   -4073.8094   -4201.6635    96.885584    188.96548   -67.139894    168.83116    16.429034    16.429034     82.30507 
  336800    795.46258    -4073.808   -4205.3168    176.32509    531.57255    508.25535   -510.85263    16.428549    16.428549    82.238639 
  336900    787.94297   -4073.8046   -4204.0702    719.86902     469.3907    566.28829    1123.9281    16.428222    16.428222    82.209264 
  337000    784.75604   -4073.8109   -4203.5497     297.9547    344.27166    385.42006    164.17237    16.428022    16.428022    82.269172 
  337100    797.72408   -4073.8057   -4205.6884   -442.98913    406.37242   -630.07235   -1105.2674    16.427933    16.427933    82.334421 
  337200    784.46071   -4073.8066   -4203.4965    33.848941     761.1958   -1145.1613     485.5123    16.427863    16.427863    82.310319 
  337300    792.29876   -4073.8078   -4204.7936    -138.3884     86.96795   -517.03722    14.904065    16.427772    16.427772    82.312049 
  337400     792.5886   -4073.8067   -4204.8404   -12.698147    -245.2314   -592.90048    800.03744    16.427683    16.427683    82.314845 
  337500    775.19813   -4073.8065   -4201.9651    181.84794     542.8011   -479.06522    481.80793    16.427573    16.427573    82.332611 
  337600    783.86668   -4073.8066   -4203.3984   -55.514889    45.205166    101.44302   -313.19285     16.42742     16.42742    82.346375 
  337700    783.41168   -4073.8065    -4203.323    129.90883   -662.03495   -340.90277    1392.6642    16.427209    16.427209    82.328573 
  337800    805.36791   -4073.8152   -4206.9616   -812.96605   -2358.5451    896.60726    -976.9603    16.426898    16.426898    82.383166 
  337900    789.11927   -4073.8098     -4204.27   -487.05175   -670.65805    151.60705   -942.10426    16.426496    16.426496    82.394637 
  338000    771.90831   -4073.8082    -4201.423     242.0177   -113.24894    757.46907    81.832959    16.425992    16.425992    82.358977 
  338100    796.02788   -4073.8115   -4205.4138   -38.939058   -1061.3154    399.77038    544.72782    16.425525    16.425525    82.315979 
  338200    795.19978   -4073.8102   -4205.2756    263.18232   -384.90243    1097.5407    76.908678    16.425096    16.425096    82.299367 
  338300     798.0739   -4073.8117   -4205.7522    -293.1219   -1092.9597    186.64075    26.953221    16.424777    16.424777     82.34094 
  338400    773.19762   -4073.8176   -4201.6455   -43.740475   -1604.8958    748.93397     724.7404    16.424386    16.424386    82.408681 
  338500    796.91189   -4073.8135    -4205.562   -1008.3209   -1568.2065   -982.89208     -473.864    16.423885    16.423885    82.462842 
  338600    794.82673   -4073.8229   -4205.2266    -404.3442   -424.70231   -733.76087   -54.569404    16.423257    16.423257    82.408115 
  338700    794.50985   -4073.8189   -4205.1702    154.38846    747.01259   -755.28301    471.43581    16.422651    16.422651     82.33281 
  338800    782.55394   -4073.8163    -4203.191    822.81274    937.93295    1166.9386     363.5667    16.422116    16.422116    82.328978 
  338900    789.12483    -4073.815   -4204.2761    290.94349    201.88132    361.88079    309.06835    16.421798    16.421798    82.343621 
  339000    816.54215    -4073.817   -4208.8108   -607.30483   -166.81758   -732.63058   -922.46633     16.42162     16.42162      82.3306 
  339100    804.86592   -4073.8146   -4206.8781    205.21844   -1027.0126     876.9288    765.73913    16.421553    16.421553    82.304113 
  339200    789.75927   -4073.8194   -4204.3853    238.29167   -100.19696    1811.4469   -996.37496    16.421572    16.421572    82.369008 
  339300    808.04585   -4073.8186   -4207.4078   -991.86882   -1864.9382   -21.027355   -1089.6409    16.421681    16.421681    82.425535 
  339400    772.69813   -4073.8181   -4201.5634    156.49934    110.52407     847.6185   -488.64455    16.421675    16.421675    82.409264 
  339500    782.28691   -4073.8275   -4203.1581    499.90045     631.7466    1447.2153   -579.26055    16.421703    16.421703    82.328076 
  339600    784.73431   -4073.8232   -4203.5584    1191.2993    699.88037    1990.8747    883.14272    16.421906    16.421906    82.237375 
  339700    790.13848   -4073.8246   -4204.4533    1431.0242    1584.4796    2304.0614    404.53166    16.422392    16.422392    82.192721 
  339800    796.43007   -4073.8294   -4205.4982    802.79229    812.68103    946.32515    649.37068    16.423216    16.423216    82.227716 
  339900    784.79363   -4073.8374   -4203.5824   -104.73267   -901.79894    644.96699   -57.366065    16.424179    16.424179    82.333191 
  340000    780.40969   -4073.8277   -4202.8479   -244.79633   -121.14225   -157.00501   -456.24175    16.425083    16.425083    82.395925 
  340100    795.81208    -4073.836   -4205.4026   -194.37153   -966.95435   -42.626249    426.46601    16.425847    16.425847    82.331785 
  340200    803.67368   -4073.8368   -4206.7031   -35.918727    -379.1407    250.77902    20.605504    16.426483    16.426483    82.255919 
  340300    770.67619   -4073.8321   -4201.2432    1267.1501    1918.5334     1177.995    704.92204    16.427113    16.427113    82.210593 
  340400    798.89733    -4073.834   -4205.9107    509.66595    462.09905    910.29188    156.60694    16.427919    16.427919    82.211784 
  340500    790.99455   -4073.8379    -4204.608    294.48453    209.02203    860.83216    -186.4006     16.42881     16.42881    82.242139 
  340600    789.13698   -4073.8407   -4204.3038   -246.02322    -51.07252   -8.8818114   -678.11532    16.429655    16.429655    82.313981 
  340700     762.5305   -4073.8361   -4199.9005    328.28094    390.85092    263.73766    330.25425     16.43036     16.43036    82.314528 
  340800    799.16672   -4073.8565   -4205.9778    365.56317    578.63063    372.14639    145.91247    16.430991    16.430991    82.200107 
  340900     796.1993   -4073.8443   -4205.4749    1285.6268    1060.7899     1611.033    1185.0574    16.431724    16.431724    82.102819 
  341000    804.33038   -4073.8491    -4206.824    563.79816    1644.8325   -213.93611     260.4981    16.432675    16.432675    82.126845 
  341100    794.03802   -4073.8574   -4205.1307   -97.011408    591.83357    1027.7948   -1910.6626    16.433711    16.433711    82.246251 
  341200    787.35409     -4073.85   -4204.0183   -62.630382    32.511647   -22.318261   -198.08453    16.434691    16.434691     82.26279 
  341300    814.36846   -4073.8562   -4208.4907   -820.12906   -861.79112   -452.70238   -1145.8937    16.435566    16.435566    82.225244 
  341400    778.74079   -4073.8519   -4202.5962    652.87269    706.19637    235.94429    1016.4774    16.436317    16.436317    82.173805 
  341500    801.45714   -4073.8549   -4206.3548   -418.73759   -543.43323     195.0767   -907.85623    16.437017    16.437017    82.222575 
  341600    773.42492   -4073.8522   -4201.7177    -100.8752     22.58592    978.36594   -1303.5775    16.437624    16.437624    82.241366 
  341700    802.22293   -4073.8572   -4206.4837   -120.93298   -644.94358    253.27802    28.866614    16.438157    16.438157    82.170036 
  341800    788.93078   -4073.8571   -4204.2861    835.46243    654.84106    1337.7955    513.75069     16.43866     16.43866    82.094872 
  341900    790.15181     -4073.86   -4204.4908    1204.8696    1845.0445    1318.7264    450.83787     16.43937     16.43937    82.033463 
  342000    789.58919   -4073.8603   -4204.3981    1122.9809    1468.0872    1703.9273    196.92816    16.440347    16.440347    82.040486 
  342100    800.19217    -4073.865   -4206.1558    809.28058    531.66641    888.89595    1007.2794    16.441549    16.441549     82.05806 
  342200    794.19144    -4073.868   -4205.1667    135.10927    -288.9833     1200.964   -506.65288    16.442852    16.442852     82.12324 
  342300    793.59389   -4073.8685   -4205.0684   -283.46546   -444.65749    329.33954   -735.07844    16.444091    16.444091    82.172401 
  342400    782.57254   -4073.8685   -4203.2463   -537.61255   -702.61021    -1507.929    597.70158    16.445155    16.445155    82.201959 
  342500    791.56378   -4073.8665   -4204.7308   -781.48905   -744.61892   -973.70813   -626.14012    16.445876    16.445876    82.233277 
  342600    791.97496    -4073.879   -4204.8112   -445.16187   -90.483716   -136.89786    -1108.104    16.446326    16.446326    82.155651 
  342700    792.80915   -4073.8708   -4204.9409     622.6205     489.6897    204.63549    1173.5363    16.446674    16.446674    82.050462 
  342800     802.6036   -4073.8703   -4206.5597   -219.87618    76.848903    922.17915   -1658.6566    16.447086    16.447086    82.082139 
  342900    784.49784   -4073.8692   -4203.5653    640.72334    669.26939    606.15409    646.74655    16.447608    16.447608    82.061543 
  343000    783.99841   -4073.8727   -4203.4862   -52.731103   -714.27983    116.36806    439.71847    16.448139    16.448139    82.083933 
  343100    802.65667   -4073.8777   -4206.5759   -1050.8637    -1106.652   -987.03196   -1058.9071    16.448569    16.448569    82.161023 
  343200    777.87843   -4073.8738   -4202.4756   -393.94056    201.52235   -936.91633   -446.42769     16.44881     16.44881    82.173845 
  343300    779.76346   -4073.8769   -4202.7903    57.045412   -852.93811    281.50072    742.57363    16.448857    16.448857    82.093095 
  343400    806.92463   -4073.8763     -4207.28   -724.45757   -1610.6555   -1033.0386    470.32137     16.44877     16.44877    82.111014 
  343500    784.42265   -4073.8759   -4203.5596   -513.19685   -362.80119    -1677.771    500.98169    16.448516    16.448516    82.177656 
  343600    788.63318   -4073.8767   -4204.2565    -1063.576   -1610.6734   -1068.9678   -511.08673    16.448068    16.448068    82.222261 
  343700    770.72535    -4073.877   -4201.2962    -753.7461   -1896.2225   -598.88405    233.86828      16.4473      16.4473    82.232634 
  343800    765.74421   -4073.8789   -4200.4746   -433.11849   -401.87912   -1208.5338    311.05748    16.446293    16.446293    82.226798 
  343900    790.93133    -4073.888   -4204.6477   -503.92049   -838.58809   -881.83793    208.66456    16.445161    16.445161    82.160647 
  344000    801.04064   -4073.8848   -4206.3158    35.333107   -195.89672   -425.11618    727.01223    16.444052    16.444052     82.10027 
  344100    767.32939   -4073.8848   -4200.7426    837.89926    769.51754    548.66944    1195.5108    16.443069    16.443069    82.103971 
  344200    811.17002   -4073.8941   -4207.9998   -982.48975   -1707.0467   -133.50753    -1106.915    16.442229    16.442229    82.197194 
  344300    774.57587   -4073.8862    -4201.942   -261.25258    -1177.091    225.81958    167.51368    16.441363    16.441363    82.254832 
  344400    786.74435   -4073.8897   -4203.9572   -803.46869    -751.2087   -1053.0604   -606.13695    16.440423    16.440423    82.264718 
  344500    801.05684   -4073.8982   -4206.3319    -486.7097   -1322.1994   -534.53365      396.604    16.439462    16.439462    82.208821 
  344600    804.43294   -4073.9015   -4206.8933    182.74463    244.53405     597.0543   -293.35444    16.438564    16.438564    82.124932 
  344700    794.25832   -4073.8991   -4205.2089     616.9759   -96.868107    649.52415    1298.2717    16.437928    16.437928    82.110848 
  344800    776.05091   -4073.9078   -4202.2074    11.295673   -346.41102    48.829567    331.46847    16.437451    16.437451    82.237457 
  344900    788.57311   -4073.9039   -4204.2737   -1140.0519   -2172.4769   -963.12098    -284.5579    16.436923    16.436923    82.351818 
  345000    772.45614   -4073.9016   -4201.6069   -895.81256   -1327.3632   -1166.2016   -193.87283    16.436109    16.436109    82.377909 
  345100    797.25498   -4073.9148   -4205.7199   -718.59658    -681.1152   -1275.5432   -199.13137    16.435127    16.435127    82.294691 
  345200     810.1124   -4073.9147   -4207.8455   -267.65117   -516.13461    73.068918   -359.88783    16.434151    16.434151    82.191182 
  345300    771.18658   -4073.9081   -4201.4035    1252.0203    313.17066    2019.5164    1423.3739    16.433302    16.433302    82.155752 
  345400    801.94768   -4073.9234   -4206.5044    -525.7942   -1082.4539   -568.54502    73.616349     16.43273     16.43273    82.264146 
  345500    798.35526   -4073.9138   -4205.9009   -940.95051    130.18213   -1693.1207   -1259.9129     16.43218     16.43218    82.369943 
  345600    773.74486   -4073.9136   -4201.8319   -165.57303     152.7934   -1355.2332    705.72074    16.431531    16.431531    82.354664 
  345700    799.57468   -4073.9167   -4206.1054    -1107.481     -1076.15   -1562.0882   -684.20469    16.430727    16.430727    82.368143 
  345800    777.86081   -4073.9168   -4202.5157    186.28235    863.01013   -118.53583   -185.62726    16.429863    16.429863     82.32476 
  345900     785.2654   -4073.9167   -4203.7397    475.15059    558.58557   -228.98447    1095.8507    16.429141    16.429141     82.23908 
  346000    777.90683   -4073.9167   -4202.5231    920.80752    1823.7219   -132.98263    1071.6833    16.428608    16.428608     82.21456 
  346100    795.75457   -4073.9161   -4205.4733    374.65853    1336.2964   -357.55485    145.23408    16.428332    16.428332     82.23999 
  346200    807.05796   -4073.9219   -4207.3477   -540.77025     667.9236   -859.95004   -1430.2843    16.428193    16.428193    82.308048 
  346300    784.06649   -4073.9181   -4203.5429   -251.27623    23.541638   -485.13889   -292.23144    16.428108    16.428108    82.357186 
  346400    782.41492   -4073.9189   -4203.2707    -535.5563   -483.35164   -649.59423   -473.72305    16.427939    16.427939    82.391823 
  346500    795.34987    -4073.919   -4205.4092   -815.53295   -940.43825   -875.88694   -630.27365    16.427602    16.427602    82.404672 
  346600    788.74525   -4073.9243   -4204.3226   -99.251842    -1062.198    18.431021    746.01141    16.427125    16.427125    82.345718 
  346700    806.42498   -4073.9217   -4207.2428   -522.22865   -1027.1652    -248.8309   -290.68984     16.42662     16.42662    82.307147 
  346800    788.36152   -4073.9193   -4204.2542    499.62374    1624.3532   -611.47219    485.99019    16.426193    16.426193    82.288499 
  346900    807.73334   -4073.9214   -4207.4589    -34.16582   -491.97972    390.93272   -1.4504596    16.425912    16.425912    82.275359 
  347000    787.74259   -4073.9234   -4204.1559    218.00654   -804.36355    1270.9792    187.40399     16.42574     16.42574    82.291428 
  347100    784.76983   -4073.9197   -4203.6607    112.16423    151.88363    86.230888     98.37817    16.425645    16.425645    82.316112 
  347200    819.90648   -4073.9226   -4209.4726   -845.71873   -1194.6605    -437.4135   -905.08221      16.4256      16.4256    82.328434 
  347300    775.50036   -4073.9197   -4202.1283    359.16292    302.02094    930.74188   -155.27406     16.42551     16.42551    82.331109 
  347400    788.51505   -4073.9227   -4204.2829   -19.661799    697.21067   -40.193961   -716.00211     16.42546     16.42546    82.314064 
  347500     787.2308    -4073.921   -4204.0689    561.50701   -136.07847    996.34518    824.25432    16.425455    16.425455    82.279102 
  347600    790.60745   -4073.9253   -4204.6314    167.78592   -37.307742    -143.3103     683.9758    16.425478    16.425478    82.303873 
  347700    778.86567   -4073.9257   -4202.6907    -322.8325    -926.2743   -542.07409     499.8509    16.425472    16.425472     82.37824 
  347800    789.96768   -4073.9267   -4204.5271   -579.22999   -849.87814     479.5147   -1367.3265    16.425362    16.425362    82.405349 
  347900    789.56858    -4073.936   -4204.4704    395.17374   -371.54586    753.94599    803.12109    16.425216    16.425216    82.287679 
  348000    756.21715   -4073.9278   -4198.9485    1730.2413    1212.0938    3411.2422    567.38794    16.425144    16.425144     82.20972 
  348100    792.22676   -4073.9288   -4204.9027    996.21238    384.45394     1660.619    943.56426    16.425416    16.425416    82.185257 
  348200    809.99293   -4073.9424   -4207.8535   -47.887773    124.13073    -379.4975    111.70345    16.425931    16.425931    82.270106 
  348300    796.01748   -4073.9323   -4205.5329   -598.20208   -439.10048   -41.426238   -1314.0795    16.426515    16.426515    82.358269 
  348400    778.13267   -4073.9337   -4202.5775    237.35628   0.76738777    139.90061    571.40084     16.42701     16.42701    82.322301 
  348500    803.16873   -4073.9368   -4206.7196    15.538614     391.1153    398.03779   -742.53725    16.427432    16.427432    82.259635 
  348600    797.88617   -4073.9351   -4205.8447    758.92002    635.28431    879.80209    761.67367    16.427919    16.427919    82.180512 
  348700    786.52051   -4073.9371   -4203.9676    727.47274    511.36174     1623.125    47.931455     16.42854     16.42854    82.213383 
  348800    801.73663   -4073.9383   -4206.4844   -13.508368   -401.11674    708.05693   -347.46529    16.429318    16.429318    82.243053 
  348900    791.52297   -4073.9396   -4204.7971    206.04995   -81.402058    492.31286    207.23905     16.43014     16.43014    82.242883 
  349000    798.17916   -4073.9406   -4205.8985   -193.44891   -672.62083   -1190.7337    1283.0077    16.430936    16.430936    82.259956 
  349100    792.95839   -4073.9393   -4205.0342   -552.58476   -1366.6809    562.53488   -853.60828    16.431589    16.431589    82.303361 
  349200    752.95048    -4073.936   -4198.4166    876.41864   -131.13794    1767.3773    993.01659    16.432071    16.432071    82.281449 
  349300    796.50741   -4073.9401   -4205.6216   -616.60989   -30.320799    -497.1456   -1322.3633     16.43247     16.43247    82.279623 
  349400    787.55258   -4073.9433   -4204.1445    424.62127   -82.332849     1529.292   -173.09532    16.432796    16.432796     82.20712 
  349500    793.44504   -4073.9406   -4205.1159    579.09265    585.69498    452.60703    698.97594    16.433187    16.433187    82.166767 
  349600    781.34645   -4073.9506   -4203.1257    373.96273   -14.915038    419.35034    717.45289    16.433646    16.433646     82.22156 
  349700    791.02731   -4073.9469   -4204.7225   -971.35941   -600.05251   -1446.9319   -867.09385    16.434074    16.434074    82.328287 
  349800    787.44492   -4073.9513   -4204.1347   -596.24321   -110.31446    211.29304   -1889.7082    16.434287    16.434287    82.324789 
  349900    802.20826   -4073.9534   -4206.5775    33.276177   -62.298012    287.60595    -125.4794    16.434396    16.434396    82.194868 
  350000     766.8456   -4073.9493   -4200.7271    1479.2829    1356.4198    1748.2718    1333.1571    16.434509    16.434509    82.103693 
Loop time of 966.082 on 1 procs for 200000 steps with 1280 atoms

Pair  time (%) = 860.17 (89.0369)
Neigh time (%) = 72.9378 (7.54985)
Comm  time (%) = 12.1196 (1.25451)
Outpt time (%) = 0.439466 (0.0454895)
Other time (%) = 20.4153 (2.11321)

Nlocal:    1280 ave 1280 max 1280 min
Histogram: 1 0 0 0 0 0 0 0 0 0
Nghost:    3441 ave 3441 max 3441 min
Histogram: 1 0 0 0 0 0 0 0 0 0
Neighs:    48132 ave 48132 max 48132 min
Histogram: 1 0 0 0 0 0 0 0 0 0

Total # of neighbors = 48132
Ave neighs/atom = 37.6031
Neighbor list builds = 20000
Dangerous builds = 0
unfix		4
