LAMMPS (13 Jan 2014)
dimension       3
boundary        p p p
units           metal

atom_style	atomic
neighbor	0.3 bin
neigh_modify	every 10 delay 0 check no

# Number of steps for the equilibration steps
variable        eqsteps equal 50000

# Number of steps to run our NPH simulation
variable        simsteps equal 200000

# Our trial melting temperature
variable	T equal 900.0
variable	T2 equal 2*${T}
variable	T2 equal 2*900

# Some high temperature to melt the crystal
variable	Tmelt equal 2000.0

#System size
variable	nx equal 4
variable	ny equal 4
variable	nz equal 20
variable	nzhalf equal ${nz}*0.5
variable	nzhalf equal 20*0.5
variable	a equal 4.050
variable	length equal ${nz}*${a}
variable	length equal 20*${a}
variable	length equal 20*4.05

lattice		fcc ${a}
lattice		fcc 4.05
Lattice spacing in x,y,z = 4.05 4.05 4.05

region         box block 0 ${nx} 0 ${ny} 0 ${nz}
region         box block 0 4 0 ${ny} 0 ${nz}
region         box block 0 4 0 4 0 ${nz}
region         box block 0 4 0 4 0 20
create_box     1 box
Created orthogonal box = (0 0 0) to (16.2 16.2 81)
  1 by 1 by 1 MPI processor grid
create_atoms   1 box
Created 1280 atoms

mass		1 26.9815

pair_style	eam/alloy
pair_coeff	* * Al_potential.alloy Al

velocity	all create ${T2} 1337
velocity	all create 1800 1337

# Create a dump file. This can be visualized with
# e.g. OVITO (http://www.ovito.org/)
dump		id all atom 1000 atomsdump

# 1 fs timestep
timestep	0.001
thermo_style	custom step temp etotal pe press pxx pyy pzz lx ly lz

# output every 100th timestep
thermo		100

# Equilibration the whole system to the trial melting temperature
fix		1 all npt temp ${T} ${T} 1 iso 0 0 3 drag 1.0
fix		1 all npt temp 900 ${T} 1 iso 0 0 3 drag 1.0
fix		1 all npt temp 900 900 1 iso 0 0 3 drag 1.0
run		${eqsteps}
run		50000
Memory usage per processor = 3.13549 Mbytes
Step Temp TotEng PotEng Press Pxx Pyy Pzz Lx Ly Lz 
       0         1800   -4050.7776   -4348.3603     10888.69    10475.171    10773.356    11417.544         16.2         16.2           81 
     100    856.87628   -4053.7894   -4195.4514     28352.34    29239.107    28660.087    27157.826    16.235838    16.235838    81.179191 
     200    850.31938   -4058.6269   -4199.2048    14807.114    14974.762    14273.778    15172.801    16.332662    16.332662    81.663311 
     300    826.64885   -4060.5542   -4197.2189    1328.4495    1690.5413    1137.9176    1156.8896    16.441954    16.441954    82.209769 
     400    813.86906   -4059.5096   -4194.0615   -7980.3943   -8391.9373   -7828.3555   -7720.8899    16.521451    16.521451    82.607257 
     500    818.85559   -4058.0191   -4193.3954   -12212.145   -12431.249   -13522.148   -10683.036    16.559038    16.559038    82.795192 
     600    810.98448     -4057.28    -4191.355   -11829.902   -11567.778   -11613.728   -12308.202    16.559771    16.559771    82.798854 
     700    808.65485   -4057.1111   -4190.8009   -8605.5864   -9453.1215   -7747.5672   -8616.0707    16.533738    16.533738    82.668688 
     800    816.82368   -4056.8732   -4191.9135   -3916.5698    -3425.845   -4120.1312   -4203.7332    16.492883    16.492883    82.464417 
     900    861.59308   -4056.1288   -4198.5706    372.02547    90.133168    422.44251    603.50072    16.450199    16.450199    82.250995 
    1000    850.07045    -4055.008   -4195.5448     4935.526    4191.0509    5572.4405    5043.0865    16.417374    16.417374    82.086868 
    1100    871.82904   -4053.9586   -4198.0926    6557.0407    6727.0061    6273.9023    6670.2136    16.401583    16.401583    82.007917 
    1200    855.19302   -4053.2903    -4194.674    6966.9465    7130.5654    6665.7764    7104.4976    16.403526    16.403526    82.017631 
    1300    839.71782   -4052.8914   -4191.7167    5358.4995    5736.2307    4612.1061    5727.1616    16.420996    16.420996    82.104979 
    1400    864.97175   -4052.5166   -4195.5169     1259.703    2040.5613    875.50396    863.04372    16.447218    16.447218    82.236092 
    1500    823.61631   -4051.9269   -4188.0902   -993.90395   -1391.0527    330.63041   -1921.2895    16.473771    16.473771    82.368856 
    1600    860.73061   -4051.1977   -4193.4969   -4078.1613   -3353.9088   -4821.3285   -4059.2466    16.493844    16.493844    82.469221 
    1700    853.55373   -4050.4905   -4191.6032   -4741.8358   -4840.5869   -4448.1321   -4936.7884    16.502751    16.502751    82.513754 
    1800    826.33295   -4049.8897   -4186.5021   -3776.8299   -3692.8979   -3618.9008   -4018.6911    16.499764    16.499764    82.498821 
    1900     854.8238   -4049.3567   -4190.6793   -3090.8516   -3963.3202   -2055.0818   -3254.1528    16.487236    16.487236    82.436179 
    2000    850.47622   -4048.7879   -4189.3917   -465.28007   -441.05686   -672.69682   -282.08654    16.469472    16.469472     82.34736 
    2100    854.40717   -4048.1377   -4189.3915    1990.5151    1207.9494    2125.6776    2637.9184    16.452115    16.452115    82.260573 
    2200    867.39972   -4047.4753    -4190.877    3197.7391    3466.1614    2985.0557    3142.0001    16.440407    16.440407    82.202037 
    2300    845.01475   -4046.8997   -4186.6006    4198.9791    3193.8508     4818.641    4584.4457    16.437203    16.437203    82.186015 
    2400    893.73481   -4046.4073   -4194.1629    2148.5135    646.80928    2353.8493    3444.8818    16.442999    16.442999    82.214996 
    2500    851.55472   -4045.9892   -4186.7714    1855.3839    1712.9107    1991.0422    1862.1988     16.45442     16.45442    82.272102 
    2600    864.25015   -4045.5334   -4188.4144    36.720585    408.69362   -911.74564    613.21378    16.468685    16.468685    82.343425 
    2700    858.87949   -4045.0385   -4187.0317   -1592.2904   -1653.9297   -1118.3841   -2004.5575    16.481496    16.481496    82.407482 
    2800      846.547   -4044.5043   -4184.4586   -1972.2985   -3487.2214   -1906.5599   -523.11412    16.489648    16.489648    82.448242 
    2900     847.3864   -4043.9819    -4184.075   -2091.8685   -1421.3607   -2281.0405   -2573.2044    16.491392    16.491392    82.456961 
    3000    864.56065   -4043.5063   -4186.4387   -1772.2505    -1717.529    -1435.023   -2164.1994     16.48696     16.48696    82.434799 
    3100    877.98927   -4043.0282   -4188.1807   -1007.8321   -949.70481   -1561.2643   -512.52727     16.47841     16.47841    82.392052 
    3200    882.85014   -4042.5281   -4188.4842    229.44801    1377.2458   -1171.4192    482.51745    16.468736    16.468736    82.343679 
    3300    908.51751   -4042.0301   -4192.2296    838.83041    853.37099    370.95839    1292.1619    16.460873    16.460873    82.304364 
    3400    873.17059   -4041.5753   -4185.9312    2227.0148    2045.9179    2396.5371    2238.5894    16.456855    16.456855    82.284275 
    3500    881.11382    -4041.176    -4186.845    1848.9319    1969.4886    1784.8791    1792.4282    16.458007    16.458007    82.290035 
    3600    880.57547   -4040.8116   -4186.3916    1292.7806   -390.31027    3058.1177    1210.5344     16.46402     16.46402      82.3201 
    3700    881.31006   -4040.4283   -4186.1298    197.20543    -185.6835      941.365   -164.06521    16.472754    16.472754    82.363771 
    3800    866.98746   -4040.0446   -4183.3782   -225.86959    304.16273    507.28572   -1489.0572    16.480979    16.480979    82.404895 
    3900    863.45299   -4039.6786   -4182.4279   -985.92043   -1921.4051   -1105.6361    69.279959    16.486747    16.486747    82.433737 
    4000    883.21984   -4039.3102   -4185.3274   -1591.1785    -1317.657   -1528.2816    -1927.597    16.488818    16.488818    82.444091 
    4100    871.48784   -4038.9531   -4183.0307   -928.33082   -502.08748   -1998.9493   -283.95562    16.487055    16.487055    82.435273 
    4200    874.90807   -4038.6036   -4183.2466   -465.93401   -1110.3663    1027.3746   -1314.8104    16.482554    16.482554    82.412769 
    4300    881.17817   -4038.2548   -4183.9345   -95.662705   -565.90373   -345.22352    624.13914     16.47706     16.47706    82.385298 
    4400    880.58514   -4037.8818   -4183.4634    644.68052    589.10453    460.20951    884.72752    16.472378    16.472378     82.36189 
    4500    868.94771   -4037.5378   -4181.1955    1381.9985   -909.33746    3300.5684    1754.7645    16.469375    16.469375    82.346877 
    4600    899.07405   -4037.2064   -4185.8446    570.35179    324.04244    916.83634    470.17659    16.469038    16.469038     82.34519 
    4700    919.09021      -4036.9   -4188.8474    205.04527    148.21924   -248.15582     715.0724    16.470853    16.470853    82.354263 
    4800    913.90518    -4036.607   -4187.6972    -191.5534    574.82228   -1044.5558   -104.92674     16.47442     16.47442    82.372099 
    4900    874.04665   -4036.3374   -4180.8381    462.64302    1307.4524   -407.95812    488.43475    16.478624    16.478624    82.393122 
    5000    880.38406   -4036.0783   -4181.6267   -425.10764   -564.63198   -677.35323   -33.337715    16.482562    16.482562    82.412811 
    5100    913.52784   -4035.7992    -4186.827   -1343.6938   -1922.1886   -1070.6226   -1038.2702     16.48529     16.48529    82.426452 
    5200     913.2205   -4035.5361   -4186.5131   -1362.3145   -1397.6229   -1308.7316    -1380.589    16.485894    16.485894     82.42947 
    5300     874.5657   -4035.3046   -4179.8911   -193.23501   -113.10019    13.927927   -480.53276    16.484287    16.484287    82.421437 
    5400    863.48233   -4035.0747   -4177.8288    587.52461      916.821   -107.15452    952.90735    16.481641    16.481641    82.408206 
    5500    880.25589   -4034.8542   -4180.3814    553.69389    608.72846    943.86508    108.48813    16.478518    16.478518    82.392589 
    5600    891.76918   -4034.6195   -4182.0501    662.68749   -861.31024    1380.4143    1468.9584    16.476215    16.476215    82.381076 
    5700    891.65421   -4034.3876   -4181.7992    835.84859    566.50156    297.58575    1643.4585    16.475569    16.475569    82.377846 
    5800    915.09222   -4034.1846    -4185.471    150.39343    723.13528   -136.25268   -135.70232    16.476659    16.476659    82.383296 
    5900    898.90159   -4034.0015   -4182.6112    196.83585    566.37524   -1616.2774    1640.4097    16.478954    16.478954    82.394771 
    6000    889.85003   -4033.8148   -4180.9282    22.149115    86.842934   -959.51104    939.11545    16.481967    16.481967    82.409834 
    6100    906.36856   -4033.6427   -4183.4869   -556.69433    652.66806   -1579.3482   -743.40283     16.48489     16.48489    82.424452 
    6200    883.87051   -4033.4791   -4179.6038   -560.30625   -852.08751   -950.48203    121.65078    16.486897    16.486897    82.434486 
    6300    892.93403   -4033.3175   -4180.9407   -365.86425   -993.59009   -950.88677    846.88412    16.487358    16.487358     82.43679 
    6400    880.98844   -4033.1583   -4178.8066    185.57429    795.33956   -470.70678    232.09009    16.486385    16.486385    82.431925 
    6500    907.07907   -4033.0099   -4182.9716   -468.76583   -936.78018   -566.69186    97.174562    16.484609    16.484609    82.423043 
    6600     901.3408   -4032.8679    -4181.881    87.846136   -253.35376    167.69234    349.19983    16.482528    16.482528    82.412642 
    6700    877.24639   -4032.7446   -4177.7742    768.87826    1143.9878    1245.7665   -83.119537     16.48057     16.48057    82.402851 
    6800    861.96264   -4032.6179   -4175.1208     1209.424    1296.2446    904.10178    1427.9256    16.479571    16.479571    82.397855 
    6900    914.37976   -4032.5011   -4183.6697    83.625549   -852.06527   -734.56458    1837.5065    16.479736    16.479736    82.398682 
    7000    905.64078   -4032.4149   -4182.1388    322.96923    453.23699   -1048.2858    1563.9565    16.480523    16.480523    82.402616 
    7100    908.10682   -4032.3412   -4182.4728   -34.888025    695.92065    364.02584   -1164.6106     16.48221     16.48221    82.411051 
    7200    888.74352   -4032.2635   -4179.1939   -33.972564    -647.5396   -92.439875    638.06178     16.48424     16.48424    82.421201 
    7300    915.68122   -4032.1876   -4183.5715   -851.46226   -1255.6029   -1731.6347    432.85083     16.48575     16.48575    82.428751 
    7400    898.42979   -4032.1492    -4180.681   -211.90271   -1262.4331    226.10781    400.61713    16.485803    16.485803    82.429014 
    7500    906.84953   -4032.0999   -4182.0236   -453.74812    -620.6463   -654.24451    -86.35356    16.485562    16.485562    82.427811 
    7600    918.26602   -4032.0547   -4183.8658   -814.62024    485.40267   -1487.2654    -1441.998     16.48491     16.48491    82.424549 
    7700    924.81829   -4032.0055   -4184.8999   -695.38403   -1211.3739    -639.2449   -235.53336    16.483723    16.483723    82.418615 
    7800    909.38924   -4031.9832   -4182.3268   -61.259653   -1040.0168    252.95631     603.2815    16.482047    16.482047    82.410234 
    7900    914.73394   -4031.9548    -4183.182    -158.8292   -551.48541    306.79372   -231.79591    16.481063    16.481063    82.405313 
    8000     895.7802   -4031.9174   -4180.0111    329.46916   -639.80862    991.89409      636.322    16.481032    16.481032    82.405161 
    8100     922.1567    -4031.873   -4184.3274   -397.12063   -237.84404   -865.33185   -88.185991    16.481825    16.481825    82.409127 
    8200    903.49674   -4031.8524   -4181.2218   -102.27099   -119.82565   -666.49273     479.5054    16.482499    16.482499    82.412495 
    8300    880.53862   -4031.8342   -4177.4081    460.06919    471.56558   -178.10627    1086.7483    16.483207    16.483207    82.416034 
    8400    901.38325   -4031.7875   -4180.8075   -348.97228    82.447867   -1015.5482   -113.81646    16.484216    16.484216     82.42108 
    8500    909.54693   -4031.7476   -4182.1173   -395.82224    1782.2597   -2435.5401   -534.18637    16.484607    16.484607    82.423035 
    8600    898.91817   -4031.7125    -4180.325   -138.03656    337.20202    286.66802   -1037.9797    16.484531    16.484531    82.422654 
    8700    880.65434   -4031.6754   -4177.2685    300.02339    1435.7591   -678.20097    142.51208    16.484356    16.484356    82.421782 
    8800     892.8991   -4031.6094   -4179.2268   -68.260437    1095.2898   -941.56272    -358.5084    16.484718    16.484718    82.423592 
    8900    883.80052   -4031.5471   -4177.6603    116.61525    1436.5679   -814.46096    -272.2612    16.484872    16.484872    82.424361 
    9000    902.69988   -4031.4839   -4180.7216   -193.66133    923.22604   -1080.7135    -423.4965    16.484489    16.484489    82.422446 
    9100    902.20625   -4031.4398   -4180.5959    82.203345   -467.70503   -1120.4178    1834.7329    16.483702    16.483702    82.418511 
    9200    916.51598   -4031.3942   -4182.9161   -98.151611    349.37547   -531.46315   -112.36715    16.483403    16.483403    82.417015 
    9300    883.83282   -4031.3578   -4177.4764    416.51442    717.66404    231.08934    300.78988    16.483622    16.483622     82.41811 
    9400    932.97635   -4031.3094   -4185.5525   -711.88134   -861.60752   -1229.5951   -44.441441    16.484641    16.484641    82.423204 
    9500    903.59887   -4031.2773   -4180.6636   -296.85214    -449.6627   -915.50826    474.61454    16.485638    16.485638    82.428189 
    9600    903.25389    -4031.262   -4180.5913   -369.37302   -20.099658   -1234.7543    146.73488    16.486273    16.486273    82.431364 
    9700    899.03253   -4031.2445   -4179.8759   -339.50996    1026.3302   -425.45035   -1619.4097    16.486472    16.486472    82.432358 
    9800    896.73431   -4031.2478   -4179.4992   -113.81743   -1235.7587    421.21914    473.08724    16.485716    16.485716    82.428582 
    9900    890.47019   -4031.2526   -4178.4685    317.32613    147.91006    689.24568    114.82266     16.48446     16.48446    82.422301 
   10000    889.42494   -4031.2685   -4178.3116    610.55861    133.90523    528.92979    1168.8408    16.483105    16.483105    82.415523 
   10100    889.75263   -4031.3015   -4178.3988    617.36231    1434.0305   -317.28402    735.34046    16.481943    16.481943    82.409716 
   10200     909.1531   -4031.3232   -4181.6278    282.59703    559.07078   -145.34293    434.06324    16.481808    16.481808    82.409039 
   10300    884.72818   -4031.3489   -4177.6154    590.34232    145.80195    430.24185    1194.9831    16.482719    16.482719    82.413597 
   10400    909.67853   -4031.3631   -4181.7545   -161.62742   -50.719679   -763.05809    328.89551    16.484334    16.484334    82.421671 
   10500    931.76364   -4031.3748   -4185.4174   -1041.7471   -1289.4775     516.2621   -2352.0259    16.486074    16.486074     82.43037 
   10600    885.66892   -4031.3857   -4177.8078    201.29936    569.40757   -107.15275    141.64328    16.486968    16.486968    82.434842 
   10700    884.62167    -4031.391     -4177.64    59.066822    637.83463   -422.86265   -37.771511    16.487303    16.487303    82.436514 
   10800    910.21292   -4031.3668   -4181.8466   -788.56129   -784.12884   -881.51194   -700.04309    16.487228    16.487228    82.436141 
   10900    911.46077   -4031.3474   -4182.0335   -672.48745   -439.49943   -406.59482   -1171.3681    16.486111    16.486111    82.430556 
   11000    913.07198   -4031.3449   -4182.2973   -322.84617   -643.99819   -242.29864   -82.241682    16.483943    16.483943    82.419716 
   11100    902.13519    -4031.348   -4180.4923    379.27031    726.27383     543.5805   -132.04339    16.481884    16.481884    82.409422 
   11200    916.09387   -4031.3412   -4182.7933    146.55197   -398.38875   -71.831798    909.87645     16.48107     16.48107    82.405352 
   11300    929.16516   -4031.3324   -4184.9455   -448.76388    -585.3283    221.62374   -982.58709    16.481422    16.481422    82.407108 
   11400    876.25189   -4031.3562   -4176.2214    833.10393    69.855037     1346.503    1082.9537    16.481949    16.481949    82.409747 
   11500    877.27143   -4031.3724   -4176.4062    711.85631    1462.3782    -1270.491    1943.6818    16.483338    16.483338    82.416691 
   11600    927.30403   -4031.3678   -4184.6731   -602.33329    805.16224   -1649.4969   -962.66527    16.485595    16.485595    82.427976 
   11700     918.8316   -4031.3632   -4183.2679   -901.68417   -1006.6747   -951.55994   -746.81786    16.487529    16.487529    82.437646 
   11800    883.89467   -4031.3808   -4177.5096    163.28348    98.442874    477.93341   -86.525834    16.488119    16.488119    82.440595 
   11900    926.55619   -4031.3905   -4184.5722   -984.30255   -282.32871   -1211.5515   -1459.0275    16.488171    16.488171    82.440856 
   12000    903.89375   -4031.4063   -4180.8413   -85.649779    728.23972    93.234234   -1078.4233    16.487131    16.487131    82.435654 
   12100    924.27943   -4031.4276   -4184.2329     -930.731   -760.83165   -417.91316   -1613.4482    16.485569    16.485569    82.427844 
   12200    893.94326   -4031.4547   -4179.2447    311.52969    671.64982    861.87508   -598.93585    16.483452    16.483452    82.417258 
   12300    900.51742   -4031.4833   -4180.3602    348.10617    1686.9612   -765.17666    122.53394    16.481909    16.481909    82.409544 
   12400    898.89146   -4031.5289    -4180.137    459.36586    225.27725    130.43711    1022.3832    16.480899    16.480899    82.404494 
   12500    931.99017   -4031.5749    -4185.655   -406.52592   -874.98797    -559.7096    215.11981    16.480986    16.480986     82.40493 
   12600    883.02758   -4031.6381   -4177.6236    711.04062    278.49719    443.91223    1410.7124    16.481696    16.481696    82.408481 
   12700    895.85851   -4031.6886   -4179.7952    431.33702    901.89372   -22.488427    414.60576    16.483222    16.483222     82.41611 
   12800    903.58597   -4031.7454   -4181.1296   -295.71491   -709.46559   -939.53511    761.85596    16.484957    16.484957    82.424786 
   12900    912.63529   -4031.7843   -4182.6646   -836.54111   -1697.4777    203.37035    -1015.516    16.486615    16.486615    82.433073 
   13000    897.86878    -4031.818    -4180.257   -300.80403   -250.45564     989.0427   -1640.9992     16.48723     16.48723    82.436148 
   13100    888.15575   -4031.8407   -4178.6739    -106.4312   -417.62723    121.93924   -23.605616     16.48706     16.48706    82.435302 
   13200    894.17195   -4031.8701   -4179.6979    -238.9145   -1601.2349    734.86979    149.62157      16.4859      16.4859      82.4295 
   13300    912.28414    -4031.883   -4182.7052   -328.41537   -2.3744602    31.065599   -1013.9373    16.484271    16.484271    82.421355 
   13400    905.65357   -4031.8906   -4181.6166   -62.991389   -56.105834    331.51098   -464.37931    16.482586    16.482586    82.412931 
   13500    910.53418   -4031.9052   -4182.4381    191.91347    244.25629   -445.65001    777.13412    16.481303    16.481303    82.406515 
   13600    882.75383   -4031.9206   -4177.8608     910.7237    1612.6262    957.28069    162.26423    16.480944    16.480944     82.40472 
   13700    918.63941   -4031.9235   -4183.7964   -113.76059    505.68494    -457.8904   -389.07631    16.481727    16.481727    82.408633 
   13800    909.14099   -4031.9587   -4182.2613   -155.64872    1048.1699   -2100.0167    584.90064    16.482573    16.482573    82.412863 
   13900    896.99157   -4031.9726   -4180.2666   -152.47231    -481.0119    -827.3863    850.98126    16.483948    16.483948    82.419739 
   14000    884.21504   -4031.9677   -4178.1494    321.13092    -110.3045    337.23695    736.46031    16.485317    16.485317    82.426583 
   14100    909.49607    -4031.946   -4182.3072   -654.48757   -985.45271   -686.35595   -291.65406    16.486504    16.486504    82.432519 
   14200    900.97782   -4031.9377   -4180.8907   -283.76742   -323.10982    434.64219   -962.83462    16.486614    16.486614     82.43307 
   14300    905.04223    -4031.909   -4181.5339   -239.38473   -885.18855    355.03407   -187.99971    16.486738    16.486738    82.433692 
   14400    868.66442   -4031.9078   -4175.5187    492.89301    715.94137     624.9753    137.76237    16.486011    16.486011    82.430056 
   14500    885.91019   -4031.9093   -4178.3713    568.38215    1206.7913    325.05033    173.30479    16.484874    16.484874    82.424368 
   14600    898.75814   -4031.9136   -4180.4997    173.99977    811.61624    139.73932   -429.35625    16.483978    16.483978    82.419888 
   14700     892.8276   -4031.9238   -4179.5294    105.72551   -307.04477    1337.1282   -712.90686    16.483177    16.483177    82.415883 
   14800    883.97413   -4031.9345   -4178.0764    724.55179    658.89933    586.89246    927.86359    16.482631    16.482631    82.413155 
   14900    868.74493   -4031.9752   -4175.5994    1179.3343    1225.0716    1590.0262    722.90504    16.482222    16.482222     82.41111 
   15000    918.11696   -4032.0123   -4183.7988   -225.04251    415.51726   -513.09321   -577.55157    16.482616    16.482616     82.41308 
   15100    894.32417   -4032.0654   -4179.9184     300.7321   -24.692502    317.09403    609.79477    16.483134    16.483134    82.415669 
   15200    895.84082    -4032.117   -4180.2207   -35.567006   -306.54519    4.8793814     194.9648     16.48363     16.48363    82.418152 
   15300    896.30761   -4032.1242   -4180.3051     76.36709   -166.81971    1813.9885   -1418.0675    16.484417    16.484417    82.422084 
   15400    898.53185   -4032.1181   -4180.6667   -219.26755   -867.62748     143.3738    66.451042    16.484883    16.484883    82.424415 
   15500    897.50175   -4032.1134   -4180.4917   -169.45158   -2115.8505    178.21183     1429.284    16.484551    16.484551    82.422754 
   15600    899.16878   -4032.1229   -4180.7769   -143.72701   -1613.3953    152.43601    1029.7782    16.483384    16.483384     82.41692 
   15700    894.58079   -4032.1199   -4180.0154    279.37823   -1024.9259   -105.66766    1968.7283    16.482112    16.482112    82.410558 
   15800    898.73343   -4032.1238   -4180.7058    651.97044    76.938027    134.10465    1744.8686    16.481073    16.481073    82.405363 
   15900    911.48426   -4032.1346   -4182.8245   -128.25152    1259.7876   -1003.8989   -640.64324    16.480928    16.480928    82.404638 
   16000    899.17016   -4032.1544   -4180.8086    455.38081    933.88571   -82.152227    514.40895     16.48133     16.48133    82.406651 
   16100     887.1613   -4032.1726   -4178.8414    298.22696    25.954553   -66.554375     935.2807    16.482595    16.482595    82.412977 
   16200    901.34501   -4032.1838   -4181.1975   -67.368622    1026.7917   -1388.7536    159.85596    16.484014    16.484014    82.420069 
   16300    889.62434   -4032.2167   -4179.2927    231.10549     680.0241   -746.48256    759.77493    16.484798    16.484798    82.423989 
   16400     887.5194   -4032.2304   -4178.9584   -107.27969    739.84833     -661.103   -400.58438    16.485584    16.485584    82.427922 
   16500    895.53427   -4032.2367   -4180.2897   -368.90973   -304.16479   -1104.1489    301.58448    16.485831    16.485831    82.429157 
   16600    892.53724    -4032.237   -4179.7946   -258.53565    265.67812    333.86613   -1375.1512    16.485274    16.485274    82.426372 
   16700    872.86223   -4032.2283   -4176.5331    373.02756   -56.736902    331.52015    844.29944     16.48401     16.48401     82.42005 
   16800    882.48214   -4032.2034   -4178.0986    463.74636    251.61298    842.24759    297.37849    16.482685    16.482685    82.413423 
   16900    908.39951   -4032.1828   -4182.3628   -148.08304    718.84317   -199.05539    -964.0369    16.481606    16.481606    82.408031 
   17000    882.84761   -4032.1735   -4178.1292    607.61016    1069.2666    473.23223    280.33163     16.48086     16.48086    82.404298 
   17100    909.59891   -4032.1606   -4182.5388    24.262567    18.036263   -704.96099    759.71243    16.481018    16.481018     82.40509 
   17200    906.29766   -4032.1586   -4181.9911   -82.832866    647.96821   -1383.4357    486.96885    16.481561    16.481561    82.407807 
   17300    899.41389   -4032.1547   -4180.8491    281.33002    706.01159   -548.46225    686.44071    16.482508    16.482508    82.412542 
   17400    921.03503    -4032.156   -4184.4249   -693.37529   -2106.3805   -39.053212    65.307822    16.483836    16.483836    82.419181 
   17500    899.11508   -4032.1741   -4180.8192    -220.7312    523.54318   -601.27216   -584.46463    16.484675    16.484675    82.423374 
   17600    895.23972   -4032.1809   -4180.1853   -242.26747    877.85411   -364.67545   -1239.9811     16.48537     16.48537    82.426849 
   17700     885.1243   -4032.1836   -4178.5157    164.58034    357.73829    720.24589   -584.24317    16.485653    16.485653    82.428265 
   17800    908.41157   -4032.1647   -4182.3467   -431.36184    80.027894   -143.76133   -1230.3521    16.485584    16.485584    82.427918 
   17900    910.96857   -4032.1609   -4182.7656   -605.10241    -1175.272   -82.554612   -557.48065    16.484544    16.484544    82.422722 
   18000    901.09271   -4032.1297   -4181.1017    149.33154    306.04229     313.7366   -171.78427    16.483779    16.483779    82.418897 
   18100    885.48809   -4032.1025   -4178.4947    209.43762    144.45649    122.31468     361.5417    16.483444    16.483444    82.417222 
   18200    875.49833   -4032.0721   -4176.8127    641.54643   -166.06391    1763.0959    327.60732    16.483333    16.483333    82.416664 
   18300    906.42546   -4032.0394    -4181.893   -146.87201   -431.59073    592.10481    -601.1301    16.483365    16.483365    82.416826 
   18400     897.4651   -4032.0079   -4180.3801    373.13149    131.55252    927.54917    60.292787     16.48354     16.48354    82.417698 
   18500    877.36786     -4031.99   -4177.0398    727.09956    1587.7297    638.00912   -44.440144    16.484064    16.484064    82.420318 
   18600    911.04874   -4031.9842   -4182.6021   -335.68837    341.34756   -762.71116   -585.70151    16.484519    16.484519    82.422593 
   18700    901.70759   -4031.9849   -4181.0586   -219.82392   -435.39344   -98.184944   -125.89339    16.484441    16.484441    82.422206 
   18800    916.11641   -4031.9768   -4183.4325   -491.96635    -1030.777   -341.51988   -103.60216    16.484174    16.484174    82.420872 
   18900    886.82204   -4031.9784   -4178.5911     632.6168    722.64151    1381.2644   -206.05555    16.483608    16.483608     82.41804 
   19000    914.30968   -4031.9741   -4183.1311   -389.32678   -226.11769    58.747819   -1000.6105    16.483467    16.483467    82.417336 
   19100    896.86002   -4031.9622   -4180.2345    162.90235   -300.13308    431.36446    357.47567     16.48354     16.48354      82.4177 
   19200     890.2257   -4031.9375    -4179.113    494.46283    651.88626     1643.171   -811.66879    16.484312    16.484312     82.42156 
   19300    890.03521   -4031.9427   -4179.0866    89.693882   -318.44217     878.1114   -290.58758    16.484902    16.484902     82.42451 
   19400    897.78057   -4031.9515   -4180.3759    46.787439    -1351.743    411.65974    1080.4456    16.485165    16.485165    82.425824 
   19500    890.86745   -4031.9491   -4179.2306   -86.572134   -423.29442   -130.56842    294.14644    16.485303    16.485303    82.426516 
   19600    872.04407   -4031.9489   -4176.1185     405.1815   -9.4142963    157.91733    1067.0415    16.484956    16.484956    82.424782 
   19700    913.36414   -4031.9366   -4182.9374   -507.89746   -1788.7169   -1670.4782    1935.5027     16.48447     16.48447    82.422349 
   19800    912.45608   -4031.9316   -4182.7822   -278.40919    318.36719    445.69154   -1599.2863    16.483759    16.483759    82.418795 
   19900    904.16408   -4031.9348   -4181.4146    185.64838   -171.89488   -545.90976    1274.7498    16.483062    16.483062    82.415309 
   20000    896.88415   -4031.9566   -4180.2328     455.4171    156.12722    686.73949    523.38458    16.482253    16.482253    82.411265 
   20100    883.26772   -4031.9924   -4178.0175    470.20879   -629.07075    1672.6467    367.05038    16.481729    16.481729    82.408643 
   20200    892.09978    -4032.007   -4179.4923    413.88582    564.94377   -1198.1259    1874.8395    16.481926    16.481926    82.409631 
   20300    906.43797   -4032.0202    -4181.876   -33.612905   -965.32287    643.52273    220.96143    16.482619    16.482619    82.413095 
   20400    915.80693   -4032.0211   -4183.4257    -338.4691   -1401.1541   -852.79812    1238.5449    16.483671    16.483671    82.418353 
   20500    893.94332   -4032.0294   -4179.8194    50.796009    772.40051   -1300.3388    680.32635    16.484501    16.484501    82.422505 
   20600    893.69651   -4032.0269   -4179.7761   -26.470556   -258.65409    -520.8622    700.10462    16.485084    16.485084    82.425421 
   20700    923.99212   -4032.0055   -4184.7633   -791.49577   -856.09919   -1324.4971   -193.89101    16.485546    16.485546    82.427732 
   20800    927.15537   -4032.0142    -4185.295   -1040.3391   -1293.4605   -345.75184    -1481.805    16.485007    16.485007    82.425033 
   20900    911.37002   -4032.0164   -4182.6875   -233.30199   -360.23138   -180.72832   -158.94626    16.484072    16.484072    82.420359 
   21000    899.83174   -4032.0127   -4180.7762    294.34955   -308.05249   -28.171007    1219.2721    16.483447    16.483447    82.417236 
   21100    892.92356   -4031.9975    -4179.619     284.0812   -539.75986     1119.446    272.55744    16.483284    16.483284     82.41642 
   21200     880.3531   -4031.9916   -4177.5349    549.26992      575.515    772.36486    299.92989    16.483067    16.483067    82.415336 
   21300    908.98469   -4031.9874   -4182.2641    35.706305    91.823067    219.76613   -204.47029    16.482995    16.482995    82.414976 
   21400    900.81711   -4031.9923   -4180.9188    225.75187    489.97953   -876.18166    1063.4577    16.483045    16.483045    82.415223 
   21500    908.23337   -4032.0059   -4182.1585    62.135029   -1062.9632    1049.2616    200.10664    16.483181    16.483181    82.415906 
   21600    893.75635    -4032.015   -4179.7742    83.295967   -387.06878   -484.99227     1121.949    16.483591    16.483591    82.417954 
   21700     929.8694   -4032.0101   -4185.7396   -802.73026   -415.50693   -760.82089   -1231.8629    16.484002    16.484002     82.42001 
   21800    880.98031   -4032.0112   -4177.6581    226.87702    410.95402    443.85406   -174.17702    16.483998    16.483998     82.41999 
   21900    902.05886   -4031.9794   -4181.1111    142.52073   -266.66021    75.920585    618.30182    16.484331    16.484331    82.421657 
   22000    911.60158   -4031.9498   -4182.6592   -325.07618   -592.59364    432.24932   -814.88423    16.484759    16.484759    82.423797 
   22100    885.50232   -4031.9397   -4178.3342    179.17131    454.00558   -1503.4324    1586.9407    16.484579    16.484579    82.422893 
   22200    917.83556   -4031.9298   -4183.6698   -733.26604   -1675.2732   -1453.7288    929.20387     16.48414     16.48414    82.420699 
   22300     867.7637   -4031.9325   -4175.3944    566.16828    100.67466    702.23062    895.59957    16.483053    16.483053    82.415263 
   22400    927.74418   -4031.9168   -4185.2949   -495.64087    422.64973   -17.335049   -1892.2373     16.48215     16.48215    82.410749 
   22500     903.8504     -4031.94   -4181.3679    136.81796    950.60303      463.309   -1003.4582    16.481038    16.481038    82.405191 
   22600    908.79824   -4031.9529   -4182.1989    140.63942    29.898059   -71.662171    463.68238    16.481025    16.481025    82.405123 
   22700    871.89955   -4031.9509   -4176.0966    896.51466    1316.6858    431.70403    941.15412    16.482237    16.482237    82.411185 
   22800    892.38657   -4031.9359   -4179.4686    41.316032   -23.922715   -1412.0673    1559.9382    16.484226    16.484226    82.421132 
   22900    899.25556   -4031.9245   -4180.5928   -531.60204   -860.49563   -1533.4717     799.1612    16.485629    16.485629    82.428143 
   23000    913.14086   -4031.9187   -4182.8825   -709.24036   -306.05252   -411.78562   -1409.8829    16.485857    16.485857    82.429286 
   23100    913.77952   -4031.9116    -4182.981   -527.09959   -371.29624   -1513.6487    303.64615    16.485212    16.485212    82.426061 
   23200    906.43542   -4031.9199   -4181.7752    -354.4554   -487.27711   -763.12917    187.04009    16.483803    16.483803    82.419014 
   23300    905.99152   -4031.9312   -4181.7131    -19.41241    419.01798   -963.13914    485.88393    16.482296    16.482296    82.411478 
   23400    907.18636   -4031.9496    -4181.929   -19.237988    159.13215   -1178.8691    962.02298    16.481234    16.481234    82.406171 
   23500    880.34606   -4031.9598   -4177.5018    824.75989    227.48337    292.41779    1954.3785    16.481018    16.481018    82.405089 
   23600    908.37886   -4031.9546   -4182.1312   0.16879089    167.07062    219.27901   -385.84326    16.481898    16.481898    82.409491 
   23700    888.13438    -4031.969   -4178.7987     303.5321    488.86958   -363.46034    785.18708     16.48271     16.48271    82.413551 
   23800    879.30449   -4032.0026   -4177.3725    321.66321   -1.7821662    406.43312    560.33869    16.483226    16.483226    82.416132 
   23900    910.29967   -4032.0179    -4182.512   -20.700281    147.22953   -1224.5273    1015.1969    16.483944    16.483944    82.419722 
   24000     876.5748   -4032.0448   -4176.9634    355.79243   -801.98245    406.82216    1462.5376    16.484228    16.484228    82.421142 
   24100    881.75654   -4032.0338   -4177.8091     325.7393    1045.1129   -311.52542    243.63045    16.484827    16.484827    82.424133 
   24200    924.09469   -4031.9996   -4184.7744   -825.94001   -2143.6509   -792.56731    458.39824     16.48533     16.48533    82.426649 
   24300    905.48768   -4031.9841   -4181.6827    39.976951    573.89772   -809.96798    356.00112    16.485086    16.485086    82.425431 
   24400    911.38114   -4031.9675   -4182.6404   -161.95359   -1158.4313    28.210285     644.3603    16.484922    16.484922    82.424608 
   24500    913.72462   -4031.9514   -4183.0118   -247.45125    30.734625    -1235.307    462.21861    16.484883    16.484883    82.424416 
   24600    890.43725   -4031.9583   -4179.1687    276.70255   -343.12299    256.72818    916.50245     16.48455     16.48455     82.42275 
   24700    905.20151   -4031.9663   -4181.6176   -376.93153   -803.55543    935.25041   -1262.4896     16.48427     16.48427    82.421349 
   24800    886.82044   -4031.9755    -4178.588     422.9965    478.24419    93.749247    696.99606    16.483947    16.483947    82.419734 
   24900    891.53533   -4031.9805   -4179.3725    156.26076   -595.62145   -458.55215    1522.9559    16.483825    16.483825    82.419125 
   25000    913.51322   -4032.0095   -4183.0349     36.64211   -71.369767    426.26948   -244.97338    16.483368    16.483368     82.41684 
   25100    909.66029   -4032.0483   -4182.4367   -154.59586   -1065.4439   -249.25287    850.90914    16.483116    16.483116    82.415582 
   25200    860.85051   -4032.0827   -4174.4018    1149.3525   -454.97676    470.48267    3432.5515    16.483238    16.483238     82.41619 
   25300    924.77515   -4032.0801   -4184.9673   -508.84634   -112.43853   -558.01084   -856.08965    16.484333    16.484333    82.421667 
   25400    897.09321    -4032.089   -4180.3998   -21.887937    165.53709   -287.56474    56.363832    16.485271    16.485271    82.426354 
   25500    886.56606   -4032.0852   -4178.6556    345.18554    123.95449    1056.9501     -145.348    16.486131    16.486131    82.430654 
   25600    890.82151   -4032.0683   -4179.3422   -216.28468   -1.2354697   -446.30844   -201.31013    16.486444    16.486444    82.432221 
   25700     906.0146   -4032.0528   -4181.8385   -271.84911   -755.20956    1149.8239   -1210.1617    16.485799    16.485799    82.428995 
   25800    894.59177   -4032.0203   -4179.9176   -113.44934    956.50653   -555.77532   -741.07922      16.4849      16.4849    82.424502 
   25900    914.74842   -4032.0003   -4183.2299   -491.22361   -2015.3794    519.37049    22.338045    16.483398    16.483398     82.41699 
   26000    907.47005   -4031.9778   -4182.0041   -5.1149133   -503.82235    492.17317   -3.6955563    16.481911    16.481911    82.409556 
   26100    895.66246    -4031.952   -4180.0263    481.30776    841.95417    496.29588    105.67323    16.481112    16.481112     82.40556 
   26200    912.42903   -4031.9351   -4182.7813   -2.6122564    762.72084    329.60032   -1100.1579    16.481103    16.481103    82.405515 
   26300    887.42365   -4031.9413   -4178.6535    801.46742    1204.8254    374.17245    825.40438    16.481601    16.481601    82.408006 
   26400    896.71879   -4031.9358   -4180.1847    276.94888    183.88204    1034.7298   -387.76519    16.483215    16.483215    82.416077 
   26500    886.19283   -4031.9452   -4178.4539     349.0814    635.01692   -954.36158    1366.5889    16.484788    16.484788     82.42394 
   26600    886.59506   -4031.9454   -4178.5205    19.179972    489.45183   -1160.2451    728.33319    16.486326    16.486326     82.43163 
   26700    881.47121   -4031.9277   -4177.6558    292.36348   -252.01049     1923.206   -794.10503    16.487412    16.487412     82.43706 
   26800    925.86887   -4031.9141   -4184.9822   -955.37565   -942.35589   -1254.7928    -668.9783    16.487621    16.487621    82.438106 
   26900    927.62044   -4031.9042   -4185.2618    -906.1644   -1062.1054   -723.15396   -933.23382     16.48703     16.48703    82.435149 
   27000    895.49623     -4031.91   -4179.9567    180.89672    -413.4329    202.08206    754.04099    16.485628    16.485628    82.428138 
   27100    879.09746    -4031.942   -4177.2777    616.64725    564.29268    754.51471    531.13435    16.483851    16.483851    82.419257 
   27200    943.34135    -4031.956   -4187.9127    -868.3324    55.216371   -1206.3724   -1453.8412     16.48287     16.48287    82.414348 
   27300    899.92166   -4031.9801   -4180.7585    239.21086   -228.26232   -363.60273    1309.4976    16.482188    16.482188     82.41094 
   27400    912.09191   -4032.0017   -4182.7921   -56.621742   -1633.3255    737.98101    725.47924    16.482265    16.482265    82.411327 
   27500    903.68851   -4032.0319    -4181.433    151.60098    315.15379   -731.84595    871.49511    16.483056    16.483056    82.415282 
   27600    894.01016    -4032.048   -4179.8491    125.74759    584.84163   -511.62684    304.02797    16.484678    16.484678     82.42339 
   27700    907.45868   -4032.0468   -4182.0713    -359.1389   -432.45073   -573.08028   -71.885673    16.486581    16.486581    82.432903 
   27800    892.54627   -4032.0564   -4179.6155   -155.40925   -27.421044     55.48699   -494.29369    16.487579    16.487579    82.437895 
   27900    906.32199   -4032.0592   -4181.8957   -747.71271   -435.81235   -1054.8277   -752.49805    16.487587    16.487587    82.437933 
   28000    923.34408   -4032.0663    -4184.717   -881.33637   -482.76989   -1374.7243   -786.51494    16.486209    16.486209    82.431045 
   28100    900.05699   -4032.0801   -4180.8808   -216.90696    128.76566   -955.98839    176.50186    16.483856    16.483856    82.419282 
   28200    897.01559   -4032.0789   -4180.3768     258.7067    827.73715    -1047.265    995.64795    16.481557    16.481557    82.407783 
   28300    898.97898   -4032.0724    -4180.695    357.85301    1687.7447    127.38242   -741.56807    16.480051    16.480051    82.400257 
   28400     892.9036   -4032.0758   -4179.6939    697.13661    1232.1476    589.49327    269.76892    16.479446    16.479446     82.39723 
   28500     895.2503   -4032.0745   -4180.0806    439.33941    1917.0371   -653.48462    54.465732    16.480269    16.480269    82.401345 
   28600    919.12718   -4032.0699   -4184.0235    12.428627    352.34282   -389.11377    74.056834    16.482087    16.482087    82.410434 
   28700    924.14721   -4032.0841   -4184.8675   -755.76147   -140.46459   -712.41975   -1414.4001    16.484185    16.484185    82.420923 
   28800    873.64315   -4032.0864   -4176.5204    307.90032   -1365.3034    1005.8353    1283.1691    16.486141    16.486141    82.430707 
   28900    876.89329   -4032.0804   -4177.0517    130.15166   -209.30927    293.18479    306.57946    16.487231    16.487231    82.436153 
   29000    875.72684    -4032.069   -4176.8475    128.67921   -275.45214    330.52086    330.96891    16.487226    16.487226     82.43613 
   29100    884.75528   -4032.0516   -4178.3226    207.27066    545.65106    83.547228   -7.3863052    16.486565    16.486565    82.432824 
   29200     908.1383   -4032.0555   -4182.1923   -386.06523   -675.06417   -1085.0223     601.8908    16.484917    16.484917    82.424584 
   29300    919.18999    -4032.036   -4183.9999   -264.82232   -470.10931   -1114.3854    790.02772    16.483208    16.483208    82.416039 
   29400    875.14638   -4032.0301   -4176.7125    904.73294     1284.094    91.495133    1338.6097    16.481735    16.481735    82.408673 
   29500    904.91622    -4031.999   -4181.6031    253.17401    387.46115    663.57598   -291.51511    16.481556    16.481556    82.407781 
   29600    936.45037   -4031.9889   -4186.8064   -507.25028   -1583.3451   -282.84407    344.43831     16.48182     16.48182    82.409099 
   29700    874.63289   -4031.9983   -4176.5958    783.63119   -134.79566    427.45061    2058.2386    16.482524    16.482524    82.412622 
   29800    910.45942   -4031.9959   -4182.5164   -369.38137   -625.34915    1139.5163   -1622.3112    16.483961    16.483961    82.419806 
   29900    902.48699   -4032.0083   -4181.2108   -345.76871   -1344.8017   -298.34937    605.84498    16.485205    16.485205    82.426026 
   30000    904.50639   -4032.0116    -4181.548   -274.21502   -474.95794   -319.74301   -27.944113    16.486182    16.486182    82.430912 
   30100    910.68634   -4032.0003   -4182.5583   -710.46513   -1068.8212   -685.70424   -376.86989    16.486876    16.486876    82.434378 
   30200    902.70078   -4031.9925   -4181.2304   -329.67519    399.11312   -485.41197    -902.7267    16.486547    16.486547    82.432737 
   30300    906.54099   -4031.9757   -4181.8484   -405.15438   -34.593612   -1196.4362    15.566678    16.485843    16.485843    82.429214 
   30400    900.07798   -4031.9764   -4180.7807    11.748107    332.24988   -1270.5651    973.55957    16.484584    16.484584    82.422918 
   30500    899.29539   -4031.9991   -4180.6739    2.4649143    433.99233   -236.40548    -190.1921    16.483003    16.483003    82.415017 
   30600    894.99095   -4032.0141   -4179.9773    525.16376    1259.9138   -693.95721    1009.5347    16.481757    16.481757    82.408783 
   30700    888.16791   -4032.0339   -4178.8692    535.12811    524.31179    661.22474     419.8478    16.481114    16.481114     82.40557 
   30800    921.36078   -4032.0477   -4184.3705   -156.71332    759.99787   -224.17396   -1005.9639    16.481281    16.481281    82.406406 
   30900    916.33087   -4032.0721   -4183.5633   -22.097812    431.17952    183.61197   -681.08492    16.482119    16.482119    82.410596 
   31000    906.22805   -4032.0898   -4181.9108   -98.871393   -591.44292     138.0811    156.74764    16.483792    16.483792    82.418961 
   31100    910.32404   -4032.0978    -4182.596   -537.64447   -671.12878   -327.30357   -614.50107    16.485474    16.485474     82.42737 
   31200    893.62056   -4032.1147   -4179.8514   -164.15558    532.82656    162.95367    -1188.247    16.486285    16.486285    82.431423 
   31300    902.96968   -4032.1242   -4181.4065    -450.1162      -679.68   -1562.8423    892.17369    16.486446    16.486446    82.432231 
   31400    896.05193   -4032.1371   -4180.2758    40.115146   -181.07874   -206.26386    507.68804    16.485795    16.485795    82.428974 
   31500     899.1691   -4032.1527   -4180.8067    -12.75798   -194.20053   -865.47094    1021.3975    16.484834    16.484834     82.42417 
   31600    917.09985    -4032.173   -4183.7913   -466.70446    543.45167   -1089.3125   -854.25261    16.483612    16.483612    82.418058 
   31700    870.85553   -4032.1956   -4176.1687    778.88864    948.48456    791.07337    597.10798    16.482432    16.482432    82.412161 
   31800     889.5441    -4032.203   -4179.2657    240.35912    187.36412    267.61051    266.10273    16.481859    16.481859    82.409294 
   31900    878.91215   -4032.2027   -4177.5078    694.48594    347.70967    140.07492    1595.6732    16.481578    16.481578    82.407888 
   32000    927.57044   -4032.1907   -4185.5401   -429.44498   -420.29221   -1254.9607    386.91793    16.481885    16.481885    82.409426 
   32100    898.42289   -4032.1964    -4180.727    229.22663    994.06154   -397.16917    90.787519    16.482271    16.482271    82.411357 
   32200    897.03569   -4032.1931   -4180.4944    88.991824    254.32688   -134.56023    147.20882    16.483315    16.483315    82.416574 
   32300    881.09593   -4032.1934   -4177.8595    441.16757    692.19782   -1128.4327    1759.7376     16.48444     16.48444    82.422201 
   32400    907.38279   -4032.1794   -4182.1913   -572.68699    -1049.978    -184.1627    -483.9203    16.485674    16.485674     82.42837 
   32500     880.8902   -4032.1616   -4177.7936   -29.998719    1628.2923   -1554.6821   -163.60634    16.486223    16.486223    82.431114 
   32600    899.10738   -4032.1184   -4180.7622   -448.43974    -1192.234    493.41626   -646.50147    16.486094    16.486094    82.430469 
   32700    893.63341   -4032.0891   -4179.8279    24.926814    178.92697   -227.75897    123.61245    16.484742    16.484742    82.423709 
   32800    930.36242    -4032.066    -4185.877   -639.64275   -836.44317   -724.38278    -358.1023    16.483144    16.483144    82.415719 
   32900    878.69632   -4032.0545   -4177.3239    737.94353    993.86902    608.08319    611.87838    16.481488    16.481488    82.407442 
   33000    921.06941   -4032.0315   -4184.3061   -166.61966     354.8948   -701.38973   -153.36405     16.48079     16.48079    82.403951 
   33100    899.33132   -4032.0288   -4180.7096    420.75716    294.43141    926.72653    41.113543    16.480558    16.480558     82.40279 
   33200    900.19747   -4032.0375   -4180.8615    208.45445     906.2737    320.25846   -601.16882    16.480926    16.480926    82.404628 
   33300    908.06272   -4032.0486   -4182.1729   -43.072859   -714.96828   -25.240093     610.9898    16.481903    16.481903    82.409513 
   33400     900.1605   -4032.0536   -4180.8715   -55.613897   -445.38923   -408.36688    686.91443    16.483419    16.483419    82.417093 
   33500    904.94505   -4032.0485   -4181.6573   -146.01357    966.30791   -1121.0208   -283.32785    16.484907    16.484907    82.424533 
   33600    896.57338   -4032.0431    -4180.268   -69.430808     248.2436   -279.35853   -177.17749    16.485934    16.485934    82.429671 
   33700     896.2972   -4032.0578    -4180.237    -221.6204   -950.35818    36.874337    248.62264    16.485963    16.485963    82.429813 
   33800    897.76402   -4032.0763    -4180.498   -351.47942     785.1537    -256.0153   -1583.5766    16.485203    16.485203    82.426014 
   33900    901.69089   -4032.0821    -4181.153   -7.2077079   -359.45734   -244.43115    582.26537    16.483787    16.483787    82.418936 
   34000    877.41431   -4032.0962   -4177.1536    811.07027    1661.2745   -59.905363    831.84164    16.482362    16.482362     82.41181 
   34100    908.77564   -4032.0915   -4182.3336   -146.57997   -1834.7318    502.99287    891.99906    16.481976    16.481976    82.409882 
   34200    892.97191   -4032.1006   -4179.7301    428.27892    728.37261   -364.20327    920.66743    16.481605    16.481605    82.408026 
   34300    911.15604      -4032.1   -4182.7357    -24.96212    179.38951   -239.46009   -14.815783    16.482091    16.482091    82.410454 
   34400    895.66134   -4032.1109    -4180.185    315.54718    433.39114    1111.9108   -598.66035    16.482787    16.482787    82.413933 
   34500    922.44952   -4032.1253   -4184.6281   -814.41424   -1129.8526   -1186.5825   -126.80761    16.483403    16.483403    82.417013 
   34600    890.65401   -4032.1256   -4179.3718    186.18864   -68.583143   -22.191886    649.34094     16.48358     16.48358      82.4179 
   34700    864.23404   -4032.1322   -4175.0105    800.42501    961.18897      146.368    1293.7181    16.483235    16.483235    82.416177 
   34800    884.25968   -4032.1226   -4178.3117    246.82337   -68.119067   -193.43759    1002.0268    16.482945    16.482945    82.414723 
   34900    898.69771   -4032.0943   -4180.6703    14.190077   -528.90714    36.693381    534.78399    16.482773    16.482773    82.413866 
   35000    929.03361   -4032.0786   -4185.6699   -772.11486   -834.34167   -660.29834   -821.70457    16.482351    16.482351    82.411754 
   35100    920.62817   -4032.0598   -4184.2615   -400.67402   -620.85444   -1654.9238    1073.7562    16.482088    16.482088     82.41044 
   35200    929.96594   -4032.0467   -4185.7922   -813.26358   -26.557324   -156.51298   -2256.7204    16.481946    16.481946     82.40973 
   35300    878.63505   -4032.0434   -4177.3026    739.91518    614.43785    705.67382    899.63388    16.481939    16.481939    82.409696 
   35400    916.41753   -4032.0126   -4183.5182   -374.36021   -326.93517   -1276.1678    480.02239    16.482951    16.482951    82.414753 
   35500    913.77709   -4031.9765   -4183.0455    -523.0689    449.78595   -642.03185   -1376.9608    16.484168    16.484168    82.420841 
   35600     903.4529   -4031.9482   -4181.3104   -225.29141   -780.85227   -153.96865     258.9467    16.484992    16.484992    82.424961 
   35700    894.86714   -4031.9045   -4179.8473    -216.4071   -739.03107   -291.64424      381.454    16.485636    16.485636    82.428179 
   35800    884.09757    -4031.873   -4178.0353    91.400339    65.514355    1112.7639   -904.07723     16.48543     16.48543     82.42715 
   35900     907.8461   -4031.8386   -4181.9271   -453.62272   -862.33105   -758.42507    259.88797    16.484831    16.484831    82.424157 
   36000    868.96947   -4031.8237    -4175.485    516.60379    713.60913    959.93303   -123.73078     16.48351     16.48351    82.417551 
   36100    898.79775   -4031.8003   -4180.3929   -131.29866   -455.80004   -37.424785    99.328863     16.48219     16.48219     82.41095 
   36200    887.11753   -4031.7827   -4178.4443     796.7442    1374.8043    686.24957    329.17875    16.481099    16.481099    82.405497 
   36300    887.43926   -4031.7866   -4178.5013    771.80944    328.20194     980.7202    1006.5062    16.480545    16.480545    82.402726 
   36400    911.54336   -4031.7795   -4182.4792    -67.01795   -393.35865   -1019.1552      1211.46    16.481269    16.481269    82.406347 
   36500    896.89463   -4031.7891    -4180.067    210.67963    559.28608    110.98275    -38.22993    16.482506    16.482506    82.412528 
   36600    889.92274   -4031.7893   -4178.9146    169.14392    462.90383    90.473174   -45.945248    16.484065    16.484065    82.420326 
   36700    900.42389    -4031.789   -4180.6505    -142.5779   -530.35694   -396.14309    498.76633     16.48518     16.48518      82.4259 
   36800    879.04913   -4031.8056   -4177.1332    395.99825     1401.483   -395.15251    181.66431    16.485354    16.485354     82.42677 
   36900    911.23326   -4031.8053   -4182.4537   -540.99941   -63.865593   -1011.5297   -547.60292    16.485315    16.485315    82.426574 
   37000    893.90654   -4031.8266   -4179.6106   -169.18264    66.383942   -884.27831    310.34645    16.484366    16.484366    82.421829 
   37100    897.58965   -4031.8438   -4180.2367    239.91288   -248.74644    64.902303    903.58279    16.483171    16.483171    82.415855 
   37200    904.65646   -4031.8463   -4181.4075    49.202358   0.55403212   -409.74407    556.79712    16.482687    16.482687    82.413433 
   37300    877.04929   -4031.8739    -4176.871    827.28826    935.86528    1194.7568    351.24272    16.482088    16.482088    82.410438 
   37400    887.79189   -4031.8954   -4178.6685    553.94277    120.26829    166.34514    1375.2149    16.482157    16.482157    82.410786 
   37500    903.84432   -4031.9116   -4181.3385    119.56697    -283.1532    192.45724    449.39687    16.482949    16.482949    82.414746 
   37600    925.07136   -4031.9244   -4184.8606   -621.80827   -366.58577   -598.10085    -900.7382    16.484156    16.484156    82.420781 
   37700    914.35753   -4031.9646   -4183.1296    -462.7514    -230.5358    -1271.223    113.50463    16.484912    16.484912    82.424558 
   37800    911.65599   -4031.9958   -4182.7141   -534.20347    -783.0342   -806.41103   -13.165181    16.485371    16.485371    82.426857 
   37900    901.53931   -4032.0158   -4181.0617   -566.48234   -1881.5681   -539.05639    721.17752    16.485236    16.485236    82.426182 
   38000    882.09368   -4032.0273   -4177.8583    342.35619   -623.70436     1019.648    631.12493    16.484332    16.484332    82.421661 
   38100    923.75615   -4032.0374   -4184.7562   -519.00386    -326.6988   -1230.6185   0.30572292    16.483282    16.483282     82.41641 
   38200    899.40644   -4032.0438   -4180.7371    119.21127   -1354.3896      485.109    1226.9144    16.482408    16.482408    82.412039 
   38300    905.57933   -4032.0605   -4181.7742   -14.480414   -454.68303    200.16947    211.07232     16.48194     16.48194    82.409702 
   38400    898.61331   -4032.0752   -4180.6373     223.6827    68.899274    -741.2141    1343.3629    16.481855    16.481855    82.409273 
   38500     898.0835   -4032.0999   -4180.5744    219.28158    219.21182   -63.459223    502.09213    16.481927    16.481927    82.409635 
   38600    885.88056   -4032.1325   -4178.5896    548.69671    1079.2818    798.93222   -232.12387    16.482192    16.482192    82.410958 
   38700     900.2493    -4032.154   -4180.9866   -48.327012   -327.08409   -207.15477    389.25782    16.483005    16.483005    82.415023 
   38800    880.66059   -4032.1774   -4177.7715    287.77299    15.219196    857.46042   -9.3606491    16.484005    16.484005    82.420024 
   38900    893.13843   -4032.2016   -4179.8586   -186.95627   -857.14012    83.668544    212.60277    16.484728    16.484728    82.423639 
   39000    881.88473   -4032.2177   -4178.0142    343.46939   -1122.5447     1367.418    785.53485    16.484796    16.484796    82.423979 
   39100    923.32808   -4032.2166   -4184.8646   -857.67632   -1053.1525     -1333.99   -185.88649    16.484655    16.484655    82.423275 
   39200    884.62642   -4032.2245   -4178.4742    104.07051    82.002404    144.05968    86.149434    16.483893    16.483893    82.419466 
   39300    900.38064   -4032.2379   -4181.0922    23.746651   -1178.6321    1079.3249    170.54717    16.482733    16.482733    82.413667 
   39400    885.93471     -4032.24    -4178.706     448.5627   -71.066402      89.5259    1327.2286     16.48187     16.48187    82.409348 
   39500    923.23377   -4032.2137   -4184.8462   -591.95268    441.38192   -588.30962   -1628.9303    16.481855    16.481855    82.409275 
   39600    929.09298   -4032.2091   -4185.8102   -505.16149   -1011.9907   -759.64518    256.15137    16.481704    16.481704    82.408519 
   39700    897.31803   -4032.2297   -4180.5776    203.82081   -411.96479    1166.1069   -142.67963     16.48139     16.48139    82.406948 
   39800    896.90602   -4032.2446   -4180.5244    117.35476    51.947673   -719.97507    1020.0917    16.481537    16.481537    82.407686 
   39900    888.17237   -4032.2533   -4179.0893    367.33827   -35.813269     834.1922    303.63588    16.482107    16.482107    82.410537 
   40000    908.14233   -4032.2469   -4182.3844   -36.140321   -239.25535   -197.42369    328.25808    16.483202    16.483202     82.41601 
   40100     913.3815   -4032.2407   -4183.2444   -439.78879   -703.89795      218.252   -833.72043    16.484435    16.484435    82.422177 
   40200    897.88449   -4032.2345   -4180.6761   -42.254593    -215.7426     290.6034   -201.62458    16.485123    16.485123    82.425617 
   40300    852.11006   -4032.2157   -4173.0897    1223.4204    1459.8187   -450.31489    2660.7574    16.485613    16.485613    82.428064 
   40400    885.35219    -4032.178   -4178.5477      72.9418   -395.25391   -8.8468745    622.92619    16.486219    16.486219    82.431094 
   40500    880.30855   -4032.1677   -4177.7036    324.55179    1646.0525    149.13039   -821.52754    16.485771    16.485771    82.428856 
   40600    928.06016   -4032.1204   -4185.5507   -986.53737   -147.32334   -2398.8125   -413.47632    16.485454    16.485454    82.427269 
   40700     903.7059   -4032.0903   -4181.4943   -69.039916   -123.95672   -434.21324     351.0502    16.484319    16.484319    82.421596 
   40800    896.87334   -4032.0653   -4180.3397    104.04147    843.26962    426.72574   -957.87096    16.483145    16.483145    82.415723 
   40900    905.60326   -4032.0455   -4181.7632   -8.3233707   -367.66687   -141.07579    483.77255    16.482189    16.482189    82.410946 
   41000    911.71065    -4032.042   -4182.7694   -49.528695   -367.10854   -302.03249    520.55494    16.481273    16.481273    82.406364 
   41100    914.50127   -4032.0337   -4183.2224    7.1346495    575.01201    907.49173   -1461.0998    16.480943    16.480943    82.404716 
   41200    917.36327   -4032.0473   -4183.7092   -188.65777    79.357485   -1206.5238    561.19304    16.480984    16.480984    82.404918 
   41300    884.78494   -4032.0579   -4178.3338    576.51976   -1107.1938    1191.9368    1644.8163    16.481729    16.481729    82.408647 
   41400    885.10987   -4032.0595   -4178.3892    405.54005    1154.9157   -580.48632    642.19083    16.483244    16.483244    82.416219 
   41500    886.40214   -4032.0393   -4178.5826   -73.812832   -658.24602   -106.79258     543.6001    16.485174    16.485174    82.425871 
   41600    901.37209   -4032.0083   -4181.0265   -616.06658   -871.99721   -1147.7343    171.53182    16.486504    16.486504    82.432518 
   41700    904.76968   -4031.9681    -4181.548   -545.93569    105.60327   -614.38789   -1129.0224    16.487062    16.487062    82.435309 
   41800    881.43939   -4031.9514   -4177.6743     135.0035    1093.7343    -526.6034   -162.12039    16.486222    16.486222    82.431109 
   41900    909.63422   -4031.9273   -4182.3115    -393.6728   -1038.3317    197.23822   -339.92493    16.484981    16.484981    82.424903 
   42000    903.07694   -4031.8959   -4181.1959   -90.696995   -1070.0775   -267.74004    1065.7266    16.483618    16.483618    82.418089 
   42100    878.68463   -4031.8554   -4177.1228    746.27594   -413.62065    1837.6564    814.79204    16.482576    16.482576    82.412881 
   42200    927.16384   -4031.8226   -4185.1047   -378.96353    30.777316   -442.00297   -725.66494    16.482185    16.482185    82.410923 
   42300    906.29772   -4031.7955    -4181.628    38.763826    133.85035   -552.68534    535.12647    16.482437    16.482437    82.412183 
   42400    906.89683   -4031.7596   -4181.6912    148.76803   -101.56107   -179.45709    727.32226    16.483417    16.483417    82.417083 
   42500    890.26664   -4031.7469   -4178.9291    233.12672    1123.2293   -7.8075471   -416.04161    16.484313    16.484313    82.421567 
   42600    891.05257   -4031.7475   -4179.0597    28.345628   -282.37827    171.08523    196.32992    16.484777    16.484777    82.423884 
   42700    908.75365   -4031.7498   -4181.9884   -418.49827   -788.14075   -291.47918   -175.87486    16.484931    16.484931    82.424657 
   42800    906.73389   -4031.7412   -4181.6458   -328.01233   -113.77886     273.9157   -1144.1738    16.485028    16.485028    82.425141 
   42900    900.28779     -4031.74   -4180.5789   -34.800077   -1387.3928    624.83137    658.16115    16.484831    16.484831    82.424156 
   43000    894.52996   -4031.7491   -4179.6361    150.82574   -500.16886    262.63424    690.01183    16.484342    16.484342    82.421708 
   43100    896.11912   -4031.7698   -4179.9195    214.46453   -435.15935   -1341.7739    2420.3268    16.483692    16.483692    82.418462 
   43200    892.67777   -4031.7664   -4179.3472     401.1748     415.3166    192.70604    595.50178    16.483858    16.483858    82.419288 
   43300    905.68071   -4031.7642   -4181.4947   -310.68487   -769.83839    -281.8455    119.62928    16.484279    16.484279    82.421393 
   43400    892.10231   -4031.7597   -4179.2454   -20.520452   -263.44556   -275.19069     477.0749    16.484595    16.484595    82.422975 
   43500    873.89683   -4031.7597   -4176.2356    438.14355     459.2741    898.01193   -42.855393    16.484379    16.484379    82.421893 
   43600    926.29198   -4031.7569   -4184.8949   -883.65788   -1786.6883   -406.57387   -457.71142    16.483975    16.483975    82.419876 
   43700    887.67398   -4031.7536   -4178.5072    395.15192    269.76412    415.90986    499.78177    16.483445    16.483445    82.417225 
   43800    926.64116   -4031.7383    -4184.934    -703.5032   -1062.5988    907.16003   -1955.0708    16.483362    16.483362    82.416809 
   43900    884.08637   -4031.7465   -4177.9069    437.46736    1180.9033   -467.86847    599.36721    16.482767    16.482767    82.413836 
   44000    897.34167   -4031.7222   -4180.0741    212.17055   -549.38345    200.35438    985.54071    16.482907    16.482907    82.414534 
   44100    919.15593   -4031.7062   -4183.6645   -508.45307    124.92428   -1876.3582    226.07471    16.483103    16.483103    82.415513 
   44200    882.41132   -4031.7101   -4177.5936    512.57475   -628.73368    1099.1118    1067.3462    16.482862    16.482862    82.414308 
   44300    903.36939   -4031.7066    -4181.055    82.392098    850.50204   -497.23199   -106.09375    16.482961    16.482961    82.414804 
   44400    897.35498   -4031.7062   -4180.0602    242.27039   -105.10538   -1058.7586    1890.6752    16.483245    16.483245    82.416226 
   44500    916.01838   -4031.7196   -4183.1591   -460.59695    562.12014   -390.15867   -1553.7523    16.483668    16.483668    82.418339 
   44600    908.08713   -4031.7324   -4181.8608   -315.88944    343.68884   -1458.5291    167.17197    16.483902    16.483902    82.419512 
   44700    933.34799   -4031.7418   -4186.0464    -575.0835   -337.31149   -691.17811   -696.76091       16.484       16.484    82.420002 
   44800    871.79534   -4031.7748   -4175.9032    764.40232    1560.6254    1112.0758   -379.49423    16.483437    16.483437    82.417187 
   44900    922.14707   -4031.7784   -4184.2312   -510.14224   -154.59935   -649.18835   -726.63901    16.483595    16.483595    82.417973 
   45000    903.14541   -4031.7966    -4181.108    171.97842    626.40026     -540.622    430.15701    16.483689    16.483689    82.418444 
   45100    912.42523   -4031.7935    -4182.639   -196.39546    73.962836    565.59186   -1228.7411    16.484373    16.484373    82.421863 
   45200    931.57413   -4031.7898   -4185.8011   -758.46173   -739.39571   -541.80474   -994.18473    16.484935    16.484935    82.424677 
   45300    893.23174   -4031.7998   -4179.4722   -39.146429    1196.3987   -328.29765   -985.54034    16.485023    16.485023    82.425113 
   45400    905.80367   -4031.7949   -4181.5457   -357.57002    81.911219   -892.04588   -262.57539    16.485227    16.485227    82.426133 
   45500    897.13208   -4031.7821   -4180.0993   -159.95095   -62.480388     404.3017   -821.67416    16.485347    16.485347    82.426736 
   45600    885.27413   -4031.7852    -4178.142    21.934619    1138.1965    -968.6839   -103.70872    16.484797    16.484797    82.423985 
   45700    868.69643   -4031.7825   -4175.3986      611.574    400.96222    2415.2478   -981.48802    16.483964    16.483964    82.419819 
   45800     913.5693   -4031.7829   -4182.8176   -155.97995    488.90222   -1495.4916    538.64954    16.482945    16.482945    82.414725 
   45900    908.55949   -4031.7968   -4182.0032     7.677622   -554.86145    1176.9638   -599.06953    16.482033    16.482033    82.410165 
   46000    921.90259   -4031.8169   -4184.2292    -419.1585   -167.90389   -1121.8508    32.279209    16.481626    16.481626    82.408131 
   46100    888.77149   -4031.8566   -4178.7917    558.62247    127.64445    238.22814    1309.9948    16.481395    16.481395    82.406973 
   46200    893.19604   -4031.8831   -4179.5496    427.74827     460.7461   -265.39892    1087.8976      16.4821      16.4821    82.410499 
   46300    891.86997   -4031.8999   -4179.3472    356.41612     485.2805   -259.84558    843.81345    16.483527    16.483527    82.417634 
   46400    897.96139   -4031.9167    -4180.371   -208.03859    231.35973    314.57019   -1170.0457    16.485067    16.485067    82.425337 
   46500    935.82062   -4031.9528   -4186.6662    -1110.314   -287.59024   -1349.1025   -1694.2493     16.48583     16.48583     82.42915 
   46600    880.22912   -4031.9958   -4177.5185    304.75671    483.37541    356.98123    73.913493    16.485766    16.485766    82.428831 
   46700    890.72344   -4032.0171   -4179.2748   -173.11541    -1408.428    1148.5345   -259.45267    16.485484    16.485484     82.42742 
   46800     892.1679   -4032.0435     -4179.54    151.17759    317.53783   -8.2501872    144.24512    16.484353    16.484353    82.421764 
   46900    898.93748   -4032.0575   -4180.6732    114.55545    48.295863    951.03648     -655.666    16.483255    16.483255    82.416275 
   47000    915.10342   -4032.0788   -4183.3671   -352.36782   -802.03669   -845.87436    590.80757    16.482337    16.482337    82.411685 
   47100    890.36607   -4032.1036   -4179.3022    570.72781    639.92278    678.78753    393.47313    16.481611    16.481611    82.408054 
   47200    925.88458   -4032.1071   -4185.1778   -570.73468   -859.71919    -1229.482    376.99713     16.48187     16.48187     82.40935 
   47300    892.87031   -4032.1348   -4179.7474     536.9865    252.82158    776.05102    582.08691    16.482074    16.482074    82.410371 
   47400    912.79677   -4032.1532   -4183.0602   -440.27126   -1014.1898   -763.52029    456.89625    16.482901    16.482901    82.414504 
   47500    890.10975   -4032.1779   -4179.3341    287.31265   -291.51216    657.88639    495.56371    16.483356    16.483356    82.416781 
   47600    898.37709   -4032.1854   -4180.7084   -207.91277    4.6986724   -640.50867    12.071704    16.483876    16.483876    82.419378 
   47700    910.88335   -4032.1856   -4182.7762   -136.99083   -368.51845    275.43741   -317.89146    16.484274    16.484274    82.421371 
   47800    892.40952   -4032.2024   -4179.7389    115.28371    1578.0067   -586.29818   -645.85738    16.484295    16.484295    82.421474 
   47900    907.77915    -4032.199   -4182.2764   -110.13183   -743.95738    472.07891   -58.517014    16.484433    16.484433    82.422166 
   48000    892.08302   -4032.1951   -4179.6776    104.04541    789.87356   -276.23651   -201.50081    16.484441    16.484441    82.422207 
   48100    891.83289   -4032.1886   -4179.6297   -41.327561   -842.43359    262.99845    455.45246    16.484278    16.484278     82.42139 
   48200    929.99919   -4032.1656   -4185.9166   -826.97353   -436.70591   -856.84987   -1187.3648    16.484052    16.484052    82.420261 
   48300    903.61071    -4032.149   -4181.5373    145.60561   -591.11191   -47.914174    1075.8429    16.483562    16.483562    82.417811 
   48400    887.25621   -4032.1116   -4178.7961    262.82089    1281.0299   -74.921503   -417.64567    16.483981    16.483981    82.419904 
   48500    898.30579   -4032.0806   -4180.5919   -36.182556    473.41238   -203.74727   -378.21277    16.484312    16.484312    82.421561 
   48600    899.82195   -4032.0614   -4180.8233   -154.43045    524.64986   -1316.9896    329.04844    16.484364    16.484364    82.421819 
   48700    896.28258   -4032.0441   -4180.2209   -298.89765    688.17257   -489.72189   -1095.1436    16.483992    16.483992    82.419958 
   48800    875.57558    -4032.055   -4176.8084    851.25984    1072.3634    736.81623    744.59987    16.482792    16.482792    82.413962 
   48900    939.91349   -4032.0432   -4187.4332   -752.22839   -1158.8141   -1390.0908     292.2198    16.482481    16.482481    82.412405 
   49000    889.78166   -4032.0291   -4179.1311    410.27265    462.79117    78.495179    689.53161    16.482628    16.482628    82.413141 
   49100    902.45693   -4032.0206   -4181.2181   -96.704619   -928.57538   -642.95689    1281.4184    16.483227    16.483227    82.416136 
   49200    907.94374   -4032.0074   -4182.1121    -357.2537   -1412.7644    -1576.736    1917.7393    16.483837    16.483837    82.419187 
   49300    894.14782    -4032.004   -4179.8279    116.80115    835.70767    325.25626   -810.56049    16.483982    16.483982    82.419908 
   49400    902.76545   -4032.0055   -4181.2541   -139.97726   -215.81903   -59.738317   -144.37444    16.484057    16.484057    82.420283 
   49500    909.81162   -4032.0106    -4182.424   -466.05627   -402.84794   -325.96098   -669.35988     16.48405     16.48405     82.42025 
   49600    914.52026   -4032.0074   -4183.1993   -649.18121   -128.71459   -980.07351   -838.75555    16.483836    16.483836    82.419178 
   49700    916.12987   -4032.0044   -4183.4624   -160.15537    781.39969   -772.42191   -489.44389    16.483207    16.483207    82.416036 
   49800    914.58332    -4032.013   -4183.2153   -137.06102   -931.83867     491.9617    28.693924    16.482409    16.482409    82.412045 
   49900    917.57407   -4032.0396   -4183.7364   -458.92728   -157.07725   -1262.9358    43.231179    16.481446    16.481446     82.40723 
   50000    899.88628   -4032.0585   -4180.8311    381.92676    60.399877    843.22785    242.15257    16.480489    16.480489    82.402443 
Loop time of 245.068 on 1 procs for 50000 steps with 1280 atoms

Pair  time (%) = 216.663 (88.4094)
Neigh time (%) = 19.6137 (8.00339)
Comm  time (%) = 3.29781 (1.34567)
Outpt time (%) = 0.110891 (0.0452492)
Other time (%) = 5.3823 (2.19625)

Nlocal:    1280 ave 1280 max 1280 min
Histogram: 1 0 0 0 0 0 0 0 0 0
Nghost:    4007 ave 4007 max 4007 min
Histogram: 1 0 0 0 0 0 0 0 0 0
Neighs:    47545 ave 47545 max 47545 min
Histogram: 1 0 0 0 0 0 0 0 0 0

Total # of neighbors = 47545
Ave neighs/atom = 37.1445
Neighbor list builds = 5000
Dangerous builds = 0
unfix		1

# Melt half the system
region  liquid block INF INF INF INF INF ${nzhalf}
region  liquid block INF INF INF INF INF 10
group	liquid_group region liquid
638 atoms in group liquid_group

# Heat up one side to Tmelt to make sure it is melted
fix 2 liquid_group npt temp ${Tmelt} ${Tmelt} 1 z 0 0 10 drag 1.0
fix 2 liquid_group npt temp 2000 ${Tmelt} 1 z 0 0 10 drag 1.0
fix 2 liquid_group npt temp 2000 2000 1 z 0 0 10 drag 1.0
run		${eqsteps}
run		50000
Memory usage per processor = 3.13778 Mbytes
Step Temp TotEng PotEng Press Pxx Pyy Pzz Lx Ly Lz 
   50000    899.88628   -4032.0585   -4180.8311    381.92676    60.399877    843.22785    242.15257    16.480489    16.480489    82.402443 
   50100     921.1087   -4031.6733   -4183.9544   -240.95058   -1047.4024    407.17517   -82.624495    16.480489    16.480489    82.402413 
   50200    933.43566   -4030.6463   -4184.9654   -183.12422   -1661.0186    972.07012    139.57586    16.480489    16.480489    82.402549 
   50300    927.62059   -4029.2714   -4182.6291     129.0148   -99.746919    267.36265    219.42866    16.480489    16.480489    82.403006 
   50400     925.2915   -4027.8745   -4180.8471    842.82803   -116.51525    1802.2821     842.7172    16.480489    16.480489    82.403728 
   50500     933.8368   -4026.6237   -4181.0091    704.65485    326.40153    500.54957    1287.0134    16.480489    16.480489    82.404803 
   50600    915.21528   -4025.3582    -4176.665    1383.5087    469.50495    1320.0683    2360.9527    16.480489    16.480489    82.406418 
   50700    936.64271   -4024.0356   -4178.8849    1040.5926     657.2652    1512.9935    951.51914    16.480489    16.480489    82.408734 
   50800    947.57346   -4022.6628   -4179.3191     911.6505    270.04769    277.01941    2187.8844    16.480489    16.480489     82.41169 
   50900    946.92776   -4021.2316   -4177.7812     1506.747    2006.0893    1010.7961    1503.3556    16.480489    16.480489     82.41573 
   51000    962.00961   -4019.7634   -4178.8064    1292.1107    428.78549    1852.5499    1594.9967    16.480489    16.480489    82.420621 
   51100    962.40599   -4018.2832   -4177.3918    1348.1135     492.0716    1229.3571    2322.9118    16.480489    16.480489    82.426657 
   51200    963.31179      -4016.8   -4176.0583    1843.2051    1433.3288    1465.6985    2630.5879    16.480489    16.480489    82.433817 
   51300    962.16119   -4015.3046   -4174.3726    1745.4604    1020.5667    1835.7544    2380.0601    16.480489    16.480489     82.44205 
   51400    960.50732   -4013.7626   -4172.5573    2109.2144    1127.3639    1928.1579    3272.1215    16.480489    16.480489    82.451359 
   51500     954.3342   -4012.2419    -4170.016     2333.506    786.51344    2274.5701    3939.4345    16.480489    16.480489    82.461928 
   51600    945.92061   -4010.7077   -4167.0908    2947.2129    1991.4173    2735.6397    4114.5816    16.480489    16.480489    82.473923 
   51700    995.94139   -4009.1303   -4173.7831    1682.4807    753.65185    1719.6459    2574.1443    16.480489    16.480489    82.487382 
   51800    969.22454   -4007.5714   -4167.8072    2966.6928    1854.0167     3263.264    3782.7975    16.480489    16.480489    82.501997 
   51900    981.15262   -4006.0339   -4168.2417      2790.09    1965.6243    3347.5246    3057.1212    16.480489    16.480489     82.51803 
   52000    998.60596   -4004.4202   -4169.5135    2605.2547    2494.3021     2216.418     3105.044    16.480489    16.480489    82.535404 
   52100    991.71378   -4002.8196   -4166.7734    2640.6406    2343.7738    2753.6551    2824.4928    16.480489    16.480489    82.553944 
   52200    992.41139   -4001.2348    -4165.304     2879.189    2626.1255    2997.2203    3014.2212    16.480489    16.480489    82.573681 
   52300    1026.7751   -3999.6063   -4169.3566    2240.1065    1639.8091    815.30879    4265.2015    16.480489    16.480489    82.594683 
   52400    997.46121   -3998.0079   -4162.9119      3084.96    2282.4808     3626.026    3346.3733    16.480489    16.480489    82.617179 
   52500    1016.3324   -3996.3657   -4164.3896    3011.8167    2835.2563    2364.2817     3835.912    16.480489    16.480489    82.640866 
   52600    1023.5066   -3994.7458   -4163.9557    2619.8371    2355.9511     1997.722    3505.8381    16.480489    16.480489    82.665794 
   52700      1025.44   -3993.0733   -4162.6028    2533.0964    1557.8423    1839.3848    4202.0621    16.480489    16.480489    82.691954 
   52800    1025.7001   -3991.4412   -4161.0137    2700.7412    2175.9815    3068.3336    2857.9086    16.480489    16.480489     82.71942 
   52900    1032.9776   -3989.7825   -4160.5582    2637.5706    2370.8996    3842.0569    1699.7554    16.480489    16.480489    82.748039 
   53000    1048.1509   -3988.1135   -4161.3978    2549.3786    2197.1968    3446.0905    2004.8483    16.480489    16.480489    82.777568 
   53100    1045.9328   -3986.4528   -4159.3704    2598.4424    1502.2671    3753.0915    2539.9685    16.480489    16.480489     82.80806 
   53200    1043.1617   -3984.7895   -4157.2488    2960.8938    1897.6639    3568.7433    3416.2741    16.480489    16.480489    82.839564 
   53300     1030.368   -3983.0978    -4153.442    2969.6325    1052.1678    3217.0552    4639.6744    16.480489    16.480489    82.872166 
   53400    1058.9554   -3981.4109   -4156.4813    2549.0921    2741.5362    1349.2578    3556.4823    16.480489    16.480489    82.905958 
   53500    1051.7931   -3979.7004   -4153.5867    2494.7497    2071.7654    2392.6424    3019.8412    16.480489    16.480489    82.940812 
   53600    1062.8432   -3977.9833   -4153.6965    2488.7448    1112.4568    3656.1985     2697.579    16.480489    16.480489      82.9766 
   53700    1059.9154   -3976.2814   -4151.5106    2930.9301    2067.5496    3240.4253    3484.8153    16.480489    16.480489    83.013408 
   53800     1078.737   -3974.5294   -4152.8702    2379.2168    2096.8887      2170.72    2870.0418    16.480489    16.480489    83.051362 
   53900     1077.576    -3972.803   -4150.9519    2650.3354     2389.956    2923.0895    2637.9606    16.480489    16.480489    83.090128 
   54000    1085.4358   -3971.0615   -4150.5097    2047.9171    450.48985     3365.712    2327.5494    16.480489    16.480489    83.129399 
   54100    1078.6166    -3969.308    -4147.629    2274.3432    480.03404    2148.6294    4194.3661    16.480489    16.480489    83.169015 
   54200    1087.9049   -3967.5551   -4147.4116    2050.7772    804.29624    2817.3656    2530.6697    16.480489    16.480489    83.209576 
   54300    1102.6032   -3965.7757   -4148.0622    1603.3784    1560.8587    832.21871    2417.0577    16.480489    16.480489     83.25055 
   54400    1082.8739   -3963.9961   -4143.0209     2091.478    1326.4179    2963.0192     1984.997    16.480489    16.480489    83.291591 
   54500    1088.5804   -3962.2437   -4142.2119     2367.054    2396.7786    2616.8974    2087.4859    16.480489    16.480489    83.332873 
   54600    1100.1937   -3960.4423   -4142.3304    2056.2199    1155.0556    2857.5104    2156.0938    16.480489    16.480489    83.374574 
   54700    1118.9132   -3958.6392   -4143.6221    1621.6175    449.71876    2134.0427     2281.091    16.480489    16.480489    83.416517 
[...]
  336300    875.44896   -4040.8101   -4185.5426   -867.73361   -1482.5388   -395.57423   -725.08781    16.457191    16.457191    82.619348 
  336400    895.86996   -4040.8131   -4188.9217   -963.21908   -1407.4874   -1306.5215   -175.64836    16.457114    16.457114    82.596343 
  336500    891.36347   -4040.8147   -4188.1782   -476.72134   -2126.5378    586.84004    109.53374    16.456871    16.456871    82.534479 
  336600      835.537   -4040.8076   -4178.9417     1542.343    1466.6999    1719.9022    1440.4269    16.456574    16.456574    82.514294 
  336700    884.40985   -4040.8148   -4187.0287   -504.41066    351.44657   -1058.9851   -805.69345     16.45637     16.45637    82.572481 
  336800    847.26471   -4040.8107   -4180.8837   -56.522662   -345.58061    504.22843   -328.21581    16.456104    16.456104    82.621722 
  336900    882.92993    -4040.813   -4186.7822   -924.43105    -2042.065     55.37457   -786.60275     16.45575     16.45575    82.641159 
  337000    887.44124    -4040.832   -4187.5471   -624.18299    201.34955   -406.69964   -1667.1989    16.455256    16.455256    82.589605 
  337100    883.40425   -4040.8271   -4186.8747    825.26163    1017.4643    853.64944    604.67118     16.45483     16.45483     82.43426 
  337200      867.131   -4040.8192   -4184.1765    1718.7253    1218.2496    2277.7651    1660.1611    16.454669    16.454669    82.380087 
  337300     895.0929   -4040.8357   -4188.8158    87.541771   -1217.9041    1399.5514     80.97809    16.454884    16.454884    82.479142 
  337400    878.01678   -4040.8295   -4185.9865   -140.90036   -281.36329    -171.8206    30.482815     16.45526     16.45526    82.577213 
  337500    872.05611   -4040.8245   -4184.9961   -461.54761    -1054.684   -777.24578    447.28696     16.45562     16.45562    82.615446 
  337600    891.13536   -4040.8276   -4188.1534   -1029.1282   -13.964968   -1194.3886   -1879.0309    16.455786    16.455786    82.625444 
  337700     870.3241   -4040.8305   -4184.7157    52.920779   -1281.4103    662.43099    777.74163     16.45587     16.45587    82.542433 
  337800    873.15228   -4040.8299   -4185.1827    310.38921   -327.96004   -264.06211    1523.1898    16.455886    16.455886    82.521188 
  337900     887.3335   -4040.8379   -4187.5352   -860.66854    -1245.031   -1042.2647   -294.70991    16.455817    16.455817    82.621378 
  338000    889.17842   -4040.8308   -4187.8331   -1080.2999   -2735.2561   -489.03553   -16.607912    16.455611    16.455611    82.654573 
  338100    879.57989   -4040.8386    -4186.254   -387.67838   -928.76914    942.53662   -1176.8026     16.45522     16.45522    82.604617 
  338200    892.30024    -4040.836   -4188.3544   -261.23438   -140.91905     8.179562   -650.96365     16.45487     16.45487    82.525987 
  338300    864.39358   -4040.8307   -4183.7354    1174.9915     81.90532    1204.8757    2238.1936    16.454621    16.454621    82.466331 
  338400     892.2062   -4040.8482    -4188.351   -316.90264   -1082.6028    144.49427   -12.599401    16.454501    16.454501    82.545274 
  338500    846.45164   -4040.8534    -4180.792    19.132819    156.81897   -749.66429    650.24378    16.454409    16.454409    82.680347 
  338600    861.12119   -4040.8415   -4183.2053   -1576.3227    -1357.682   -1091.8093   -2279.4769     16.45416     16.45416    82.776918 
  338700    898.87483   -4040.8898   -4189.4951   -1217.3131    -765.9489   -684.64978   -2201.3406    16.453629    16.453629     82.64433 
  338800    867.59546   -4040.8657   -4184.2998    1376.8532    1129.4526    1091.5021     1909.605    16.453062    16.453062    82.427073 
  338900    875.33453   -4040.8568   -4185.5704    1279.3235    1924.3224    1403.6316    510.01632    16.452787    16.452787    82.392418 
  339000    869.17882   -4040.8625   -4184.5583    1605.7087    1567.7391    2429.3295    820.05766    16.452937    16.452937    82.452472 
  339100      862.643   -4040.8806    -4183.496    517.46366   -493.48336    1405.4177    640.45659    16.453349    16.453349    82.569055 
  339200    865.89711   -4040.8647   -4184.0181   -546.00916    983.48993   -1182.9465   -1438.5709    16.453718    16.453718    82.677817 
  339300    862.24272   -4040.8749   -4183.4241    77.838481    458.13444    840.70373   -1065.3227    16.454005    16.454005    82.630049 
  339400    895.76863   -4040.8751   -4188.9669    296.41673    681.42802   -1438.5156    1646.3377    16.454315    16.454315    82.504556 
  339500    873.68255   -4040.8731   -4185.3136    543.49973    1292.0842    777.40846   -438.99341    16.454604    16.454604    82.507175 
  339600    907.34245    -4040.874   -4190.8793   -517.44256    154.12512   -1795.0532    88.600385    16.454988    16.454988    82.528361 
  339700     880.1536   -4040.8753   -4186.3855   -344.26386   -365.29398    292.25534   -959.75295    16.455337    16.455337    82.593735 
  339800    881.38952   -4040.8738   -4186.5884   -947.67435   -20.568291   -1065.3523   -1757.1024    16.455577    16.455577    82.632614 
  339900    900.47314   -4040.8771   -4189.7466   -1023.2222   -1278.8394    -1195.469    -595.3582    16.455659    16.455659     82.60396 
  340000    893.24438   -4040.8804   -4188.5549   -255.44671   -1450.7271    1183.5252   -499.13825    16.455657    16.455657    82.533048 
  340100    878.20478   -4040.8734   -4186.0615    590.74845    1403.0421    -170.8868     540.0901    16.455703    16.455703    82.484472 
  340200    863.57745   -4040.8743   -4183.6441    506.24659     834.9998    505.82974    177.91023    16.455809    16.455809    82.494327 
  340300    892.06735   -4040.8755   -4188.3554   -147.98353   -899.38372   -379.57093    835.00407    16.455971    16.455971    82.532804 
  340400    877.01809   -4040.8817   -4185.8736   -820.09776   -714.92419   -411.84071   -1333.5284    16.455987    16.455987    82.631491 
  340500    867.57001   -4040.8816   -4184.3115    -517.3233   -47.045679   -361.82538   -1143.0988     16.45594     16.45594    82.639642 
  340600    884.94891   -4040.8883   -4187.1914   -127.74803   -801.30638    139.06707    278.99523    16.455826    16.455826    82.520221 
  340700     869.1034   -4040.8828   -4184.5662    942.07542    64.494145    1708.1227    1053.6094     16.45573     16.45573    82.433365 
  340800    879.38352   -4040.8842   -4186.2672    677.28916    2548.4972   -437.84824   -78.781468    16.455795    16.455795    82.447384 
  340900    888.54366    -4040.886   -4187.7833    280.83503    789.54838   -1285.6264    1338.5831    16.456056    16.456056    82.483378 
  341000    860.06621    -4040.888   -4183.0773     186.9514    118.60256    616.99203   -174.74039    16.456345    16.456345    82.578776 
  341100    860.60905   -4040.8837   -4183.1628    -266.3721    -460.4262    75.233277   -413.92339    16.456553    16.456553    82.612818 
  341200    893.17115   -4040.8878   -4188.5502   -610.59853   -1075.7126    -1051.676    295.59299    16.456635    16.456635    82.581175 
  341300    874.87896    -4040.886   -4185.5242   -208.06717   -784.10611    84.867557    75.037042    16.456612    16.456612    82.553134 
  341400     888.4347   -4040.8861   -4187.7654   -296.41056   -1111.5355    -664.8806    887.18438    16.456579    16.456579    82.523269 
  341500     863.3853   -4040.8846   -4183.6226    411.41263    557.96728   -486.36989    1162.6405    16.456497    16.456497    82.543346 
  341600    870.59613   -4040.8854   -4184.8155   -277.25515    365.59228   -364.06157   -833.29615    16.456376    16.456376    82.584814 
  341700    866.54416    -4040.888   -4184.1483    355.04301   -37.946399    189.67977    913.39567    16.456233    16.456233    82.546507 
  341800    881.27953   -4040.8882   -4186.5847    375.66739    627.38675    -932.0933    1431.7087    16.456138    16.456138    82.510039 
  341900    888.94729   -4040.8895   -4187.8536   -250.47245   -1165.7456    8.8818209    405.44644    16.456077    16.456077    82.559562 
  342000    888.65886   -4040.8908   -4187.8072   -780.49479   -163.25349   -1199.0446   -979.18629    16.455918    16.455918    82.612838 
  342100    880.18954   -4040.8909   -4186.4071    -325.3218   -602.26554    74.186818   -447.88667    16.455713    16.455713     82.61093 
  342200    878.77824   -4040.8916   -4186.1745    -300.4397    58.670834   -53.035451   -906.95449    16.455499    16.455499    82.563072 
  342300    833.68873    -4040.896   -4178.7245     1830.365    2397.2841   -160.05909    3253.8699    16.455341    16.455341    82.439378 
  342400    854.31872   -4040.8964   -4182.1355    1235.6694    189.38952    1218.6485    2298.9702    16.455354    16.455354    82.438999 
  342500    897.91875   -4040.8975   -4189.3448   -344.03025      512.592   -642.53159   -902.15117    16.455537    16.455537    82.543834 
  342600    868.31285   -4040.8945   -4184.4473   -57.287117    210.58776   -356.47347   -25.975642    16.455735    16.455735    82.585212 
  342700     898.3236   -4040.8997   -4189.4139   -354.38575    232.62066   -625.37981    -670.3981    16.455928    16.455928    82.552307 
  342800    871.89605   -4040.9144   -4185.0595    1179.2433    2345.1062    1381.7144   -189.09065    16.456182    16.456182    82.432671 
  342900    884.77937   -4040.9036   -4187.1787    1615.4573    380.05724    1793.6881    2672.6267    16.456707    16.456707     82.32164 
  343000    870.29428   -4040.9324   -4184.8127    942.76372    2313.4086    1079.8221   -564.93953    16.457454    16.457454    82.432922 
  343100    875.17058   -4040.9327   -4185.6191   -420.43571    449.28911   -898.97227   -811.62396    16.458372    16.458372    82.608155 
  343200    867.33955   -4040.9184   -4184.3102   -1189.8406   -759.46008    -848.0305   -1962.0313    16.459024    16.459024    82.712891 
  343300    877.39282   -4040.9435   -4185.9973   -1062.2518   -580.01747   -1202.5905   -1404.1473    16.459354    16.459354    82.640387 
  343400    870.81825   -4040.9329   -4184.8998    947.56031    293.15036    503.80379    2045.7268    16.459488    16.459488    82.475706 
  343500    887.65793   -4040.9306   -4187.6815     655.3811    1249.8994    658.22373    58.020138    16.459666    16.459666    82.414942 
  343600    901.39538   -4040.9302   -4189.9523    217.14564    445.19857   -97.614887    303.85323    16.460052    16.460052    82.415371 
  343700    858.06082   -4040.9424   -4182.8002    582.72429    1156.2251   0.83088314    591.11693    16.460472    16.460472    82.505639 
  343800    865.43669   -4040.9295   -4184.0067   -218.60049  -0.69451112   -579.60758   -75.499367    16.460884    16.460884    82.563323 
  343900    860.71637   -4040.9321   -4183.2289    149.20659    821.35285   -789.12097    415.38788    16.461167    16.461167    82.517622 
  344000    886.38781   -4040.9393   -4187.4803    76.454966   -436.52881    1622.9944   -957.10074    16.461412    16.461412    82.468589 
  344100    890.72999   -4040.9348   -4188.1936      654.307    655.48859   -160.68024    1468.1127    16.461762    16.461762    82.383584 
  344200    905.78781   -4040.9449   -4190.6931   -23.101836   -825.38249      824.608   -68.531025    16.462218    16.462218      82.4275 
  344300    876.66727   -4040.9535   -4185.8874   -498.67902    198.57037   -1552.0798   -142.52763    16.462698    16.462698    82.558187 
  344400    878.14147   -4040.9425   -4186.1201   -1247.0079   -927.71409   -2307.6061   -505.70353    16.462972    16.462972    82.650526 
  344500    873.89589   -4040.9479   -4185.4236   -1225.0393    -955.8271   -2370.9591   -348.33182    16.462878    16.462878    82.635632 
  344600    867.54272   -4040.9476   -4184.3729    -348.1686   -740.50985   -625.90574    321.90979    16.462488    16.462488    82.549737 
  344700    869.19798   -4040.9513   -4184.6504    474.35958    376.82847    829.71644    216.53383    16.461982    16.461982    82.463433 
  344800    872.25757   -4040.9468   -4185.1517    340.39295    674.19013   -834.76093    1181.7497    16.461595    16.461595    82.442054 
  344900    862.09384   -4040.9537   -4183.4783    149.77743   -444.10549      462.176     431.2618     16.46126     16.46126     82.53133 
  345000    851.78448   -4040.9543   -4181.7745   -436.90905   -141.26517    262.37911   -1431.8411    16.460848    16.460848    82.653747 
  345100    874.67426    -4040.956   -4185.5604   -1159.0908   -773.51566    -1461.208   -1242.5488     16.46029     16.46029    82.655034 
  345200    861.58593   -4040.9579   -4183.3985   -162.84205   -212.94963   -232.26469   -43.311817    16.459517    16.459517    82.587164 
  345300    901.75855   -4040.9572   -4190.0393   -836.79942   -2228.6734   -560.52839    278.80349    16.458689    16.458689    82.545091 
  345400    859.13263   -4040.9563   -4182.9913    534.49943   -842.50361    1155.9674    1290.0345    16.457812    16.457812    82.539161 
  345500    881.33545   -4040.9696   -4186.6753    -579.8702    106.43736   -2130.0169    283.96895    16.456954    16.456954    82.627632 
  345600    873.25223   -4040.9664   -4185.3357   -1336.4071   -1309.8497    -1814.878   -884.49376    16.455979    16.455979    82.725819 
  345700    861.70883   -4040.9694   -4183.4303   -944.65374   -881.12005   -1271.1546   -681.68659     16.45479     16.45479     82.72467 
  345800    863.86703   -4040.9821   -4183.7999    40.669605   -669.17916   -92.785771    883.97374    16.453506    16.453506    82.612247 
  345900    871.33936   -4040.9848   -4185.0379    941.35668   -76.465574    1114.8055    1785.7301    16.452346    16.452346    82.482252 
  346000    886.37777    -4040.976   -4187.5153    842.58192    238.50432    1759.9117    529.32979    16.451466    16.451466    82.475199 
  346100    886.47498   -4040.9886   -4187.5439    49.878697    568.89381    175.91807   -595.17578    16.450862    16.450862    82.565424 
  346200    891.04351   -4040.9777   -4188.2883   -625.02694    395.59028   -1001.8799   -1268.7912    16.450433    16.450433    82.630022 
  346300    868.12822   -4040.9768    -4184.499    256.80874    337.02693   -286.74182     720.1411    16.450108    16.450108    82.605172 
  346400    876.53544    -4040.979   -4185.8911   -177.75224    1824.5421   -1528.8478    -828.9511    16.449792    16.449792     82.62624 
  346500    864.48827   -4040.9797   -4183.9001   -118.85641   -477.49058   -413.82831    534.74968    16.449469    16.449469    82.645801 
  346600    864.41349   -4040.9785   -4183.8866   -97.459743     918.4229   -891.73745   -319.06468    16.449081    16.449081    82.654261 
  346700    878.33069   -4040.9812   -4186.1901   -15.530662    817.79236   -608.46388   -255.92046    16.448733    16.448733    82.615106 
  346800    859.31998   -4040.9786   -4183.0446    897.65555    1669.6522   -299.60517    1322.9196    16.448425    16.448425    82.561043 
  346900    882.13484   -4040.9786   -4186.8165    301.51483    890.92503     1160.008   -1146.3886     16.44819     16.44819    82.576061 
  347000    877.84087    -4040.985   -4186.1129    975.19644    1499.0273    1971.5533   -544.99132    16.448144    16.448144    82.508296 
  347100    885.00539   -4040.9829   -4187.2953    1288.8314    2310.7537    559.56095    996.17959    16.448401    16.448401     82.44863 
  347200    846.96895   -4040.9926   -4181.0166    1580.7177    1882.7441    1848.4004    1011.0087    16.448953    16.448953     82.51908 
  347300     891.5437   -4040.9929   -4188.3862   -247.39613   -650.07614   -134.80999    42.697731    16.449704    16.449704    82.616004 
  347400    869.56772   -4040.9929   -4184.7531    -404.0988    89.811947   -1299.5759   -2.5324081    16.450329    16.450329     82.69585 
  347500    881.19917   -4040.9921   -4186.6752   -1212.9389   -7.6417815   -1715.3009   -1915.8739    16.450714    16.450714    82.715854 
  347600    890.91039   -4041.0036   -4188.2922   -229.68058   -655.44833    116.19999   -149.79341    16.450894    16.450894    82.605364 
  347700    873.76079   -4040.9943   -4185.4476    963.13894    975.14007    690.37309    1223.9037    16.451037    16.451037    82.508721 
  347800    878.67095   -4040.9949     -4186.26    598.88787    875.18503    230.91172    690.56684     16.45129     16.45129    82.514966 
  347900    873.79392   -4040.9984   -4185.4573    192.82718   -183.15148    36.373118    725.25989     16.45163     16.45163     82.59037 
  348000    874.30947   -4040.9961   -4185.5402   -660.69461   -869.86318    39.947274   -1152.1679    16.451945    16.451945     82.65304 
  348100    860.08584   -4040.9933   -4183.1858    77.423906   -144.96884    391.61997    -14.37941    16.452123    16.452123    82.642336 
  348200    869.07368    -4040.997   -4184.6755    -260.1486   -900.91063    33.745036    86.719807    16.452191    16.452191    82.605437 
  348300    884.40922   -4040.9976   -4187.2114   -73.469413   -1212.9874    1145.0971   -152.51794     16.45219     16.45219    82.566691 
  348400    877.69574   -4040.9948   -4186.0987     379.3658   -270.22528    1244.1896    164.13306     16.45218     16.45218    82.543275 
  348500    898.61214   -4041.0018   -4189.5637   -403.50406    413.88692   -1275.3257   -349.07337    16.452265    16.452265    82.569981 
  348600    870.13114   -4040.9952   -4184.8485   -60.688501   -233.46425   -109.35134    160.75008    16.452375    16.452375    82.601956 
  348700    859.45931   -4040.9961   -4183.0852    392.15067   -509.88926    1025.5036    660.83763    16.452407    16.452407    82.592037 
  348800    904.19383    -4040.998   -4190.4827   -970.78804   -18.655046   -1701.6638   -1192.0453    16.452416    16.452416     82.61359 
  348900    879.04369   -4040.9965   -4186.3233   -200.49809   -374.05603    83.894833   -311.33308    16.452348    16.452348    82.604754 
  349000    879.52124   -4040.9993   -4186.4051    18.952619    78.341688     636.4131   -657.89693    16.452238    16.452238    82.576282 
  349100    872.80238    -4040.997   -4185.2919    206.58795    198.39952    279.61951    141.74482     16.45216     16.45216    82.566369 
  349200    884.23524   -4041.0003   -4187.1853   -321.86627   -935.72532    524.84451   -554.71799    16.452081    16.452081     82.61833 
  349300    895.04084   -4040.9987   -4188.9702   -775.48292   -686.09818    354.84887   -1995.1994    16.451957    16.451957    82.635911 
  349400    904.33077   -4041.0151   -4190.5224   -517.49845   -567.81748    383.66532   -1368.3432      16.4519      16.4519    82.544494 
  349500    863.31341   -4041.0049   -4183.7311      1809.04    905.66187    1751.6769    2769.7811    16.452032    16.452032    82.411412 
  349600    895.53521   -4041.0079   -4189.0612    701.97985    1193.5945    1578.9535    -666.6085    16.452413    16.452413    82.444159 
  349700    857.16793   -4041.0151   -4182.7253    928.99043    989.91735    1075.2111    721.84282    16.453082    16.453082    82.511271 
  349800    857.04023   -4041.0142   -4182.7032    98.495848    257.50241   -366.40042    404.38556    16.453791    16.453791    82.627229 
  349900    842.16894     -4041.01   -4180.2405   -121.46713    461.25173    114.00895   -939.66209    16.454286    16.454286    82.670412 
  350000    870.38705    -4041.014   -4184.9097   -156.62195    -164.8363   -865.97897    560.94942    16.454578    16.454578    82.610757 
Loop time of 959.181 on 1 procs for 200000 steps with 1280 atoms

Pair  time (%) = 853.232 (88.9542)
Neigh time (%) = 73.0075 (7.61144)
Comm  time (%) = 12.0874 (1.26017)
Outpt time (%) = 0.437176 (0.0455781)
Other time (%) = 20.4168 (2.12857)

Nlocal:    1280 ave 1280 max 1280 min
Histogram: 1 0 0 0 0 0 0 0 0 0
Nghost:    3815 ave 3815 max 3815 min
Histogram: 1 0 0 0 0 0 0 0 0 0
Neighs:    47628 ave 47628 max 47628 min
Histogram: 1 0 0 0 0 0 0 0 0 0

Total # of neighbors = 47628
Ave neighs/atom = 37.2094
Neighbor list builds = 20000
Dangerous builds = 0
unfix		4
