LAMMPS (13 Jan 2014)
dimension       3
boundary        p p p
units           metal

atom_style	atomic
neighbor	0.3 bin
neigh_modify	every 10 delay 0 check no

# Number of steps for the equilibration steps
variable        eqsteps equal 50000

# Number of steps to run our NPH simulation
variable        simsteps equal 200000

# Our trial melting temperature
variable	T equal 1100.0
variable	T2 equal 2*${T}
variable	T2 equal 2*1100

# Some high temperature to melt the crystal
variable	Tmelt equal 2000.0

#System size
variable	nx equal 4
variable	ny equal 4
variable	nz equal 20
variable	nzhalf equal ${nz}*0.5
variable	nzhalf equal 20*0.5
variable	a equal 2.87
variable	length equal ${nz}*${a}
variable	length equal 20*${a}
variable	length equal 20*2.87

lattice		bcc ${a}
lattice		bcc 2.87
Lattice spacing in x,y,z = 2.87 2.87 2.87

region         box block 0 ${nx} 0 ${ny} 0 ${nz}
region         box block 0 4 0 ${ny} 0 ${nz}
region         box block 0 4 0 4 0 ${nz}
region         box block 0 4 0 4 0 20
create_box     1 box
Created orthogonal box = (0 0 0) to (11.48 11.48 57.4)
  1 by 1 by 1 MPI processor grid
create_atoms   1 box
Created 640 atoms

mass		1 26.9815

pair_style	eam/alloy
pair_coeff	* * Al_potential.alloy Al

velocity	all create ${T2} 1337
velocity	all create 2200 1337

# Create a dump file. This can be visualized with
# e.g. OVITO (http://www.ovito.org/)
dump		id all atom 1000 atomsdump

# 1 fs timestep
timestep	0.001
thermo_style	custom step temp etotal pe press pxx pyy pzz lx ly lz

# output every 100th timestep
thermo		100

# Equilibration the whole system to the trial melting temperature
fix		1 all npt temp ${T} ${T} 1 iso 0 0 3 drag 1.0
fix		1 all npt temp 1100 ${T} 1 iso 0 0 3 drag 1.0
fix		1 all npt temp 1100 1100 1 iso 0 0 3 drag 1.0
run		${eqsteps}
run		50000
Memory usage per processor = 3.05577 Mbytes
Step Temp TotEng PotEng Press Pxx Pyy Pzz Lx Ly Lz 
       0         2200   -1622.9721    -1804.686    542818.14    542069.45    542458.09    543926.89        11.48        11.48         57.4 
     100    1123.9084   -1772.8917   -1865.7235    408211.27    410369.33    406867.75    407396.72    11.724811    11.724811    58.624053 
     200    927.31808   -1918.7077   -1995.3016    246195.23    247723.91    245793.01    245068.76    12.065783    12.065783    60.328914 
     300    810.19278   -1992.2819   -2059.2016    151203.35    150581.95    152381.47    150646.64    12.335897    12.335897    61.679485 
     400    709.96601   -2029.1691   -2087.8103    92550.948    92882.418    93101.123    91669.305    12.551536    12.551536    62.757682 
     500    698.15483   -2045.3785   -2103.0441    56078.661    57016.484    55807.358    55412.141    12.707799    12.707799    63.538994 
     600    706.09644   -2052.2089   -2110.5306    32178.131    32373.742      31838.2     32322.45    12.824217    12.824217    64.121084 
     700    693.01285   -2054.6727   -2111.9136    16792.514    16726.387    17303.963    16347.191    12.911865    12.911865    64.559324 
     800    654.87276   -2054.8988   -2108.9895    6990.0317    6748.5304    6782.7405    7438.8243    12.975793    12.975793    64.878966 
     900    649.86699   -2054.2089   -2107.8861     751.9313    2210.7446    643.40792   -598.35863    13.019181    13.019181    65.095905 
    1000    663.84595   -2053.3011   -2108.1329   -3464.0372   -3269.7057   -3385.3423   -3737.0636    13.045602    13.045602    65.228012 
    1100    660.82751   -2052.3507   -2106.9332   -5174.9346   -6098.2171   -4427.6115   -4998.9753    13.057888    13.057888    65.289442 
    1200     636.8601   -2051.4706   -2104.0735   -4262.1406   -4503.3984   -5592.6269   -2690.3965    13.059214    13.059214     65.29607 
    1300    671.52196   -2050.6138   -2106.0797   -3767.7838   -3049.8266   -4128.1808   -4125.3439    13.053364    13.053364    65.266818 
    1400    661.22653   -2049.7562   -2104.3717   -1714.8154   -3006.0822   -515.77285   -1622.5912    13.043512    13.043512    65.217558 
    1500    662.63995   -2048.8461   -2103.5783    371.07245   -825.20094    1774.5249    163.89343    13.033013    13.033013    65.165063 
    1600    727.55883   -2047.9034   -2107.9977    330.67462   -55.544874    1519.9133   -472.34455    13.024402    13.024402    65.122008 
    1700    707.10066   -2046.9556   -2105.3602    2171.5684    2488.0466    3040.7899    985.86865    13.019175    13.019175    65.095876 
    1800    729.61752   -2045.9885   -2106.2529    1943.4261    1380.4855    1474.8697    2974.9231    13.018086    13.018086     65.09043 
    1900    684.87895   -2045.0661   -2101.6352     3217.345    2000.9831     3602.758    4048.2939    13.020338    13.020338    65.101691 
    2000    717.78897   -2044.1442   -2103.4315    1663.7569   -560.68339    2725.4544    2826.4996    13.026092    13.026092    65.130458 
    2100    713.57749   -2043.2176   -2102.1571    1207.4631    2697.3626   -360.91976    1285.9465    13.033411    13.033411    65.167056 
    2200    722.43007   -2042.2791   -2101.9499     239.5363    74.414503   -760.97083    1405.1652    13.040533    13.040533    65.202664 
    2300    755.26382   -2041.3437   -2103.7264   -1188.2752   -1576.2499   -914.29065    -1074.285    13.046787    13.046787    65.233937 
    2400    715.49492   -2040.3917   -2099.4896   -525.24134   -1325.3521     91.56733   -341.93924    13.051131    13.051131    65.255656 
    2500    736.96147   -2039.4642   -2100.3351   -1582.8332   -2050.2245   -337.20928   -2361.0659    13.053395    13.053395    65.266973 
    2600    713.79126   -2038.5091   -2097.4663   -133.09944   -1294.8254    675.66253    219.86454    13.053067    13.053067    65.265336 
    2700     766.7259   -2037.5767   -2100.9061   -898.37468   -1161.8563   -2162.3611    629.09333    13.051133    13.051133    65.255665 
    2800    748.93732   -2036.6524   -2098.5126    455.83113   -35.332319    227.01996    1175.8057    13.048409    13.048409    65.242044 
    2900    789.77543   -2035.7108   -2100.9441    270.47653    766.52714   -711.05685     755.9593    13.046266    13.046266    65.231331 
    3000    798.33396    -2034.794   -2100.7341    414.42102    794.81739   -702.88724    1151.3329    13.045719    13.045719    65.228595 
    3100    776.16967   -2033.8638   -2097.9733     1218.006    958.49565    1605.0373     1090.485    13.046683    13.046683    65.233414 
    3200    815.91074   -2032.9504   -2100.3424    344.47518    926.54706    263.62956   -156.75109    13.049388    13.049388    65.246939 
    3300    796.16941   -2032.0399   -2097.8013    213.30779   -682.00136    767.37397    554.55075    13.053274    13.053274     65.26637 
    3400    758.47156   -2031.1319   -2093.7796    1030.3523    1011.2142    1060.0743    1019.7683    13.057338    13.057338    65.286689 
    3500    772.08092   -2030.2211   -2093.9929    432.35558    1250.7882    56.071362    -9.792839    13.061318    13.061318    65.306588 
    3600    763.56529   -2029.3145   -2092.3829    739.45824    167.36742   -18.580192    2069.5875    13.064696    13.064696     65.32348 
    3700    793.91561   -2028.4218   -2093.9971   -301.10846   -173.44836    185.73444   -915.61145    13.067431    13.067431    65.337154 
    3800    819.41252   -2027.5173   -2095.1985   -528.35155    224.35552   -836.94795   -972.46223    13.069383    13.069383    65.346914 
    3900    789.31192   -2026.6139   -2091.8089    357.54678     267.8467   -388.64034     1193.434    13.070248    13.070248    65.351241 
    4000    819.46619   -2025.7232   -2093.4089   -651.64227   -274.79179   -1737.6139    57.478838    13.070553    13.070553    65.352763 
    4100    807.48884   -2024.8417   -2091.5381    488.18333    559.79257    561.97981    342.77762    13.070269    13.070269    65.351345 
    4200    829.04644   -2023.9488   -2092.4258    436.77539    1663.9083   -386.22326    32.641082    13.070184    13.070184    65.350922 
    4300    827.94233   -2023.0762   -2091.4619    581.41466    2729.1332    339.26662   -1324.1558    13.070773    13.070773    65.353867 
    4400    874.48995   -2022.2013   -2094.4318   -604.97931   -1227.8887    64.154475   -651.20373    13.072304    13.072304    65.361518 
    4500    839.28027   -2021.3407   -2090.6629    208.58811    220.25675    796.39737    -390.8898    13.074464    13.074464    65.372318 
    4600    877.40315   -2020.4697   -2092.9408   -803.34305    999.47054   -333.85837   -3075.6413    13.077087    13.077087    65.385437 
    4700    854.40095   -2019.6154   -2090.1865   -36.340855    996.44007    907.29759   -2012.7602    13.079174    13.079174    65.395868 
    4800    852.81374   -2018.7808   -2089.2208   -6.2916773    1168.9865    442.22384   -1630.0854    13.081246    13.081246    65.406229 
    4900    852.98908   -2017.9353   -2088.3898    58.268739    -1055.185    1967.6684   -737.67723    13.083447    13.083447    65.417236 
    5000    868.74611   -2017.0784   -2088.8345   -274.30664   -2499.7007    741.17358     935.6072    13.085349    13.085349    65.426746 
    5100    873.95662   -2016.2472   -2088.4336    -214.3775   -1185.8668     321.3981    221.33625    13.086477    13.086477    65.432385 
    5200    826.27771   -2015.4187    -2083.667    966.16813      288.039    2449.9838    160.48153    13.087284    13.087284    65.436419 
    5300    905.13906      -2014.6    -2089.362   -610.83226   -2445.1601    529.10856    83.554725    13.088345    13.088345    65.441724 
    5400    896.77587   -2013.7687   -2087.8399   -511.37013   -1426.0023    596.24613   -704.35428    13.089475    13.089475    65.447376 
    5500     880.5698   -2012.9645   -2085.6972    81.355226    975.46213     100.4906   -831.88705    13.090288    13.090288     65.45144 
    5600    865.19983   -2012.1663   -2083.6294    563.52745    1539.4286    1237.5621   -1086.4083    13.091153    13.091153    65.455765 
    5700    895.84028   -2011.3568   -2085.3507    243.25585    935.15168    632.94897   -838.33311    13.092283    13.092283    65.461413 
    5800    875.14897    -2010.565   -2082.8499    856.21488    1402.9821    183.93661    981.72591    13.093429    13.093429    65.467147 
    5900    873.13637    -2009.784   -2081.9026    1047.0885    2202.9902    1936.6211   -998.34565    13.094965    13.094965    65.474827 
    6000    893.09639   -2009.0181   -2082.7854      669.053     548.9856    1177.4257    280.74773    13.096925    13.096925    65.484626 
    6100    886.70105   -2008.2399   -2081.4789    927.19506    2071.5267   -1391.8367    2101.8952    13.099375    13.099375    65.496876 
    6200    925.35841    -2007.463   -2083.8951   -512.66322   -335.47657   -383.48012   -819.03296    13.101695    13.101695    65.508475 
    6300    923.79911   -2006.7233   -2083.0265   -473.47574   -1697.1242    1003.3779   -726.68087    13.103404    13.103404    65.517019 
    6400     939.4666   -2005.9695   -2083.5669   -688.36337   -745.06203   -1265.7981   -54.230013    13.104738    13.104738    65.523692 
    6500    983.83955     -2005.23   -2086.4924   -1549.9796   -3015.6741   -1478.3673   -155.89736    13.105113    13.105113    65.525567 
    6600    921.42484   -2004.5062   -2080.6133    228.52885    10.749586   -616.49885    1291.3358    13.104811    13.104811    65.524054 
    6700    964.61439   -2003.7797   -2083.4542   -520.58041    -170.1934    566.09851   -1957.6463    13.104581    13.104581    65.522903 
    6800     966.4096   -2003.0772   -2082.8999   -25.847433   -319.68165    878.65752   -636.51817    13.104576    13.104576    65.522878 
    6900    947.52718   -2002.3682   -2080.6313    412.24221   -976.07989    1576.2833    636.52316    13.105137    13.105137    65.525685 
    7000    953.59596   -2001.6831   -2080.4475    393.46194    2217.3432    158.51202   -1195.4694     13.10678     13.10678    65.533901 
    7100    929.22235   -2000.9866   -2077.7378    699.35806    1414.0411   -197.87596    881.90907    13.109597    13.109597    65.547984 
    7200    909.19493   -2000.2878   -2075.3848    1122.8345    2821.1469    1139.7242    -592.3674    13.113007    13.113007    65.565033 
    7300    956.12498   -1999.5986   -2078.5718   -373.72791   -155.31901    173.37275   -1139.2375    13.116325    13.116325    65.581625 
    7400    936.72926   -1998.9193   -2076.2906    329.41502    800.05668    340.30035   -152.11197    13.118963    13.118963    65.594813 
    7500    939.94698   -1998.2432   -2075.8803    34.166917    731.24474   -168.94049    -459.8035    13.120775    13.120775    65.603876 
    7600    927.30226     -1997.58   -2074.1726    793.52499   -250.59315     1303.058    1328.1101    13.122102    13.122102     65.61051 
    7700    960.62236   -1996.9162    -2076.261   -516.23545   -1008.3369   -929.09788    388.72844    13.122911    13.122911    65.614553 
    7800    1005.7504   -1996.2575   -2079.3297   -889.33301    -250.0953   -1103.0891   -1314.8146    13.122889    13.122889    65.614443 
    7900    976.33172   -1995.6259   -2076.2682   -235.90412   -389.01819     154.4272   -473.12136    13.122191    13.122191    65.610955 
    8000    977.43376    -1994.985   -2075.7183    148.76666    248.66504    660.38338   -462.74844    13.121663    13.121663    65.608317 
    8100    960.86005   -1994.3682   -2073.7326     1604.327    289.39498    2102.4781    2421.1078    13.121041    13.121041    65.605203 
    8200    958.16782   -1993.7676   -2072.9097    1385.2417   -611.28497    1752.5796    3014.4305    13.121549    13.121549    65.607745 
    8300    1003.4984   -1993.1617   -2076.0479    244.59091    1688.9391   -1369.1331    413.96673    13.123505    13.123505    65.617526 
    8400    1007.4232   -1992.5652   -2075.7755   -75.276149   -484.43611   -895.15556    1153.7632    13.126045    13.126045    65.630226 
    8500    1013.4289   -1991.9846   -2075.6911   -185.76358    343.54372    1078.0643   -1978.8988    13.128913    13.128913    65.644566 
    8600    1040.6646   -1991.3966   -2077.3526   -1656.6813   -1189.2346   -1850.6774   -1930.1318    13.131726    13.131726    65.658632 
    8700    988.55662   -1990.8302   -2072.4822   -78.872306    68.343702    757.02634    -1061.987    13.133553    13.133553    65.667766 
    8800    987.98734   -1990.2645   -2071.8695   -509.89122   -1537.1163    106.14747   -98.704813    13.134979    13.134979    65.674893 
    8900    950.19245   -1989.7124   -2068.1956    1184.6666    118.09792    1238.1116    2197.7902    13.135316    13.135316     65.67658 
    9000    994.11593   -1989.1469   -2071.2581    11.815029   -34.090413   -464.93718    534.47268    13.135715    13.135715    65.678576 
    9100     998.4504   -1988.5712   -2071.0404    218.15562    16.122881   -1385.3561    2023.7001    13.135872    13.135872     65.67936 
    9200    1056.2727   -1988.0095   -2075.2547   -942.78069   -1754.0528    417.60883   -1491.8981     13.13573     13.13573    65.678651 
    9300    1011.0078   -1987.4915    -2070.998    259.69138   -17.144241    1693.8243   -897.60591    13.135168    13.135168    65.675841 
    9400    1023.6288    -1986.985   -2071.5339    877.66265   -273.83092    1317.0105    1589.8084    13.134975    13.134975    65.674875 
    9500    1047.8452    -1986.481   -2073.0301    541.35685    604.33803   -213.39536    1233.1279    13.135961    13.135961    65.679805 
    9600    1040.0718   -1985.9958   -2071.9029    104.65522   -489.20616    1899.5725   -1096.4007    13.137461    13.137461    65.687307 
    9700    1031.5882   -1985.5317    -2070.738    41.236056    2631.5187   -1058.5697   -1449.2408    13.139318    13.139318    65.696589 
    9800    1007.6757   -1985.0581   -2068.2893    555.20482   -1.2275365    452.15805    1214.6839    13.141527    13.141527    65.707633 
    9900    994.56772   -1984.5796   -2066.7281    765.46893    991.97813    895.01001    409.41867    13.144087    13.144087    65.720433 
   10000    1034.2826   -1984.0823   -2069.5112   -745.29908   -367.43523     242.7285   -2111.1905     13.14687     13.14687     65.73435 
   10100    1055.3846   -1983.5907   -2070.7625   -1292.6615   -302.72791    -33.31321   -3541.9433    13.149102    13.149102    65.745509 
   10200    1053.6907   -1983.0994   -2070.1313   -1149.7157   -2303.6458    432.77253   -1578.2739    13.149904    13.149904    65.749518 
   10300    1051.0062   -1982.6543   -2069.4645   -1440.4807   -103.82553   -1266.3453   -2951.2712    13.148758    13.148758    65.743789 
   10400    1060.2286   -1982.2447   -2069.8166    -482.2575     118.2024   -2732.8498    1167.8749    13.145814    13.145814    65.729072 
   10500    1016.7435    -1981.834   -2065.8142    1452.7834    1304.4103    1556.0614    1497.8784    13.142971    13.142971    65.714857 
   10600     1021.616   -1981.4304   -2065.8131    1920.6757    2559.6397    1170.2101    2032.1772    13.141334    13.141334    65.706668 
   10700    1083.5471    -1981.032     -2070.53    -250.8797    -1023.712   -480.05572    751.12859    13.141772    13.141772     65.70886 
   10800    1043.9944   -1980.6436   -2066.8747    1248.2292    341.22785    1062.2242    2341.2355    13.143548    13.143548    65.717741 
   10900    1043.9388   -1980.2637   -2066.4902    891.47662   -82.413045    794.27314    1962.5698    13.146858    13.146858     65.73429 
   11000    1057.0035   -1979.8712   -2067.1767   -14.955753    452.71799   -754.52401    256.93876    13.151322    13.151322    65.756612 
   11100    1080.7066   -1979.4941   -2068.7574   -1735.0021   -2911.1566   -1444.8777   -848.97194    13.155229    13.155229    65.776143 
   11200    1056.5386   -1979.1344   -2066.4016   -1036.2919    -595.8644   -3952.9025    1439.8912    13.157706    13.157706    65.788529 
   11300    1072.4774   -1978.7602   -2067.3439    -1506.493   -1315.7212   -1099.2359   -2104.5218    13.159489    13.159489    65.797444 
   11400    1089.4177   -1978.3943   -2068.3772   -1715.0188   -1436.4489   -1478.4658   -2230.1418    13.159243    13.159243    65.796214 
   11500    1062.1158   -1978.0627   -2065.7905   -621.59723    1017.7329   -1093.2944   -1789.2302    13.157348    13.157348    65.786741 
   11600    1066.7193   -1977.7309    -2065.839     49.16081    2571.6829     113.4626   -2537.6631    13.154942    13.154942    65.774711 
   11700    1071.3762   -1977.4057   -2065.8984    438.19636     2295.923   -674.23058   -307.10337    13.152478    13.152478     65.76239 
   11800    1109.4625   -1977.0879   -2068.7265    78.813048    2454.5822     75.34201   -2293.4851     13.15104     13.15104    65.755199 
   11900    1051.1249   -1976.8015   -2063.6215    1181.0374    2042.2779    1661.1571   -160.32275    13.150101    13.150101    65.750503 
   12000     1103.288   -1976.5347   -2067.6632    147.02799   -1177.5457    214.82565     1403.804    13.150556    13.150556     65.75278 
   12100     1126.521   -1976.2903   -2069.3378   -666.27537   -274.52765   -2796.8555    1072.5571    13.151829    13.151829    65.759147 
   12200    1061.2747    -1976.072   -2063.7303    1305.6118    2158.8733    971.25635    786.70559    13.153545    13.153545    65.767723 
   12300     1099.157     -1975.85   -2066.6373    365.77367    2498.7517   -1409.1023    7.6716757    13.156545    13.156545    65.782727 
   12400    1104.7324   -1975.6364   -2066.8843   -649.14279     319.3134   -1219.4014   -1047.3404    13.160122    13.160122    65.800609 
   12500    1066.1077   -1975.4178   -2063.4753   -276.97412   -1776.4945     975.6301    -30.05792    13.163121    13.163121    65.815607 
   12600    1128.8258   -1975.2003   -2068.4382    -2079.903   -3160.5092   -2543.8526   -535.34708    13.164849    13.164849    65.824244 
   12700    1011.6376   -1975.0006    -2058.559     890.5802    801.10967    1653.2799    217.35103    13.164824    13.164824    65.824122 
   12800    1079.7349   -1974.7838   -2063.9669   -556.74394    1510.2148   -2388.3306   -792.11605    13.164073    13.164073    65.820367 
   12900    1054.6325   -1974.5598   -2061.6696    65.552476    1386.0811    -1236.706    47.282366    13.162543    13.162543    65.812716 
   13000    1085.8486    -1974.334   -2064.0221    523.95898   -307.21693    72.265198    1806.8287    13.160769    13.160769    65.803843 
   13100    1065.0507   -1974.1057    -2062.076    880.56489    276.03917    1255.6269    1110.0286    13.159678    13.159678    65.798391 
   13200    1103.4209   -1973.8669   -2065.0064   -344.10668     1060.414   -1865.8477   -226.88636    13.159876    13.159876     65.79938 
   13300    1091.0985   -1973.6566   -2063.7783   -6.5644789    2178.9552   -1121.9033   -1076.7453    13.159764    13.159764    65.798818 
   13400    1036.2244   -1973.4758    -2059.065    1633.3077    471.99898    4819.4592   -391.53498    13.159446    13.159446    65.797228 
   13500    1042.2015   -1973.2612   -2059.3441    1779.7725    741.30883    3061.8849    1536.1239    13.161071    13.161071    65.805356 
   13600    1087.6496   -1973.0353   -2062.8722   -373.41805    981.82337   -565.85481   -1536.2227     13.16407     13.16407    65.820349 
   13700    1110.4234    -1972.819   -2064.5369   -974.16651    2.8885946   -459.67362   -2465.7145    13.166856    13.166856     65.83428 
   13800    1098.2206   -1972.6012   -2063.3112    -857.2036   -1526.0789   -246.63031   -798.90163     13.16911     13.16911    65.845548 
   13900    1112.0568   -1972.4059   -2064.2587   -1572.9691   -571.99284   -1812.6013    -2334.313    13.169849    13.169849    65.849247 
   14000    1111.9717   -1972.2266   -2064.0724   -1312.4549   -1014.4797   -646.25551   -2276.6295    13.169288    13.169288     65.84644 
   14100    1085.4048   -1972.0703   -2061.7217      49.1807    1587.0651   -581.09012    -858.4329    13.167566    13.167566    65.837829 
   14200    1094.1204   -1971.9243   -2062.2956   -10.108149    74.781111    76.111712   -181.21727     13.16566     13.16566    65.828298 
   14300    1073.5829   -1971.7717   -2060.4466    1014.2791    631.59078    928.72883    1482.5176    13.164299    13.164299    65.821494 
   14400    1138.7036   -1971.6282    -2065.682   -663.39767    376.45187     -362.601   -2004.0439     13.16375     13.16375    65.818752 
   14500    1059.6704   -1971.5241     -2059.05    1497.0323    1174.6438    1020.3234    2296.1298    13.163184    13.163184    65.815921 
   14600    1102.7429   -1971.4144   -2062.4979    620.70361    291.18652    1619.0456   -48.121238    13.164041    13.164041    65.820205 
   14700    1118.9381    -1971.326   -2063.7472    79.569027   -1445.1595   -150.81483    1834.6815    13.165231    13.165231    65.826153 
   14800    1095.1248   -1971.2635   -2061.7178    374.27957    824.84577    1817.6474   -1519.6545    13.166405    13.166405    65.832025 
   14900    1099.9852    -1971.207   -2062.0628   -372.84136    -312.5786    -862.9226    56.977126    13.167718    13.167718    65.838589 
   15000    1081.0994   -1971.1561   -2060.4519    547.28596   -2517.1951    2264.2841    1894.7689    13.168791    13.168791    65.843955 
   15100    1065.0861   -1971.1181   -2059.0912    285.28321   -1761.2172    1841.7726    775.29427    13.169613    13.169613    65.848065 
   15200    1089.5466   -1971.0629   -2061.0565     19.46689   -1039.0401    1041.4411    55.999674    13.170307    13.170307    65.851534 
   15300    1083.9565   -1971.0099   -2060.5417   -124.42362    1904.0469   -1600.3113   -677.00642    13.170722    13.170722     65.85361 
   15400    1140.0029   -1970.9533   -2065.1144   -1554.4752    -1494.386   -2572.5698   -596.46979     13.17092     13.17092    65.854599 
   15500    1093.2383   -1970.9218   -2061.2203    175.59685    853.21222   -902.70434    576.28267    13.169745    13.169745    65.848727 
   15600    1061.4178   -1970.8782   -2058.5484    604.57353    2299.9251    532.31585   -1018.5204    13.168643    13.168643    65.843215 
   15700    1072.8334   -1970.8215   -2059.4346    1037.8528     1639.304   -1886.4888    3360.7432    13.168029    13.168029    65.840147 
   15800    1112.5383   -1970.7728   -2062.6654   -782.58186   -1128.7134   -533.16005   -685.87213    13.167687    13.167687    65.838434 
   15900    1171.9979   -1970.7352   -2067.5389    -1583.382   -2264.5677   -1464.3282   -1021.2501    13.166919    13.166919    65.834593 
   16000    1095.9509   -1970.7389   -2061.2615    170.87014   -2573.4719    2303.8944    782.18791    13.165456    13.165456    65.827281 
   16100    1129.6999   -1970.7434   -2064.0535    143.02256    -449.5824      737.812    140.83807    13.164711    13.164711    65.823553 
   16200    1122.4499   -1970.7563   -2063.4675   -226.92013   -1538.0941   -274.85315    1132.1869     13.16498     13.16498    65.824901 
   16300     1080.648   -1970.7837   -2060.0422    434.02305    -883.6401    2319.2427    -133.5335    13.165497    13.165497    65.827484 
   16400    1086.8793   -1970.8013   -2060.5745    526.92202   -2222.7494    295.46569    3508.0498    13.166431    13.166431    65.832153 
   16500     1089.927   -1970.8274   -2060.8524    246.97133   -1557.2909    120.65663    2177.5482    13.167282    13.167282    65.836409 
   16600    1102.4455   -1970.8536   -2061.9125    152.19796   -53.099279   -33.152253    542.84542    13.168026    13.168026    65.840131 
   16700    1084.2055   -1970.8897    -2060.442    207.40089    599.54812   -2687.1393    2709.7939    13.168366    13.168366    65.841832 
   16800    1104.9707   -1970.8999   -2062.1674   -460.80285    290.55293   -1511.2694   -161.69207    13.168923    13.168923    65.844616 
   16900    1117.1867   -1970.8934     -2063.17   -401.54185   -2778.3512    159.11962    1414.6061    13.169392    13.169392    65.846959 
   17000    1109.6478   -1970.8893   -2062.5432   -646.65105    -158.1661   -914.18699   -867.60006    13.169848    13.169848    65.849242 
   17100    1114.9767   -1970.8745   -2062.9685   -347.07249    1084.1297   -763.66926   -1361.6779    13.169914    13.169914    65.849568 
   17200    1104.7037   -1970.8528   -2062.0983    -395.2526    2795.7503   -3116.4321   -865.07596    13.169981    13.169981    65.849907 
   17300    1093.1189   -1970.8121   -2061.1007   -279.66568   -616.20733   -778.81751     556.0278    13.170165    13.170165    65.850824 
   17400    1124.8145   -1970.7737   -2063.6802   -739.44753   -784.28102   -1803.6506    369.58908    13.169592    13.169592    65.847958 
   17500    1101.7847    -1970.752   -2061.7564   -414.37832   -57.064293   -402.25133   -783.81933    13.168361    13.168361    65.841804 
   17600    1071.7897   -1970.7396   -2059.2664    614.39771   -81.136181     681.6578    1242.6715    13.166882    13.166882    65.834408 
   17700     1108.673   -1970.7161   -2062.2894    277.80376    983.13359   -817.62153    667.89921    13.165736    13.165736    65.828678 
   17800    1096.3603   -1970.7061   -2061.2624    139.47596   -2005.6853    480.90402    1943.2092    13.165156    13.165156    65.825781 
   17900    1077.9074   -1970.6808    -2059.713    1099.8229    3259.5824   -1587.2449    1627.1311    13.165738    13.165738     65.82869 
   18000    1106.7716   -1970.6582   -2062.0744    97.924274   -858.94395    1281.9812   -129.26446    13.167024    13.167024    65.835119 
   18100    1100.3659   -1970.6365   -2061.5237    42.152792   -178.02046   -401.23364    705.71248    13.168738    13.168738    65.843688 
   18200     1166.516   -1970.6247   -2066.9757   -1668.3937   -3244.2845   -1645.1367    -115.7599     13.17032     13.17032      65.8516 
   18300     1088.106   -1970.6464   -2060.5209    125.49565    832.57095   -1321.3132    865.22922    13.170718    13.170718    65.853592 
   18400    1059.5627   -1970.6726   -2058.1896    541.93411    2046.5514   -1613.0909    1192.3419     13.17065     13.17065    65.853252 
   18500     1075.391   -1970.6893   -2059.5136    510.16154   -368.76851   -226.77676    2126.0299    13.170126    13.170126    65.850632 
   18600    1127.5441   -1970.7064   -2063.8385   -1135.4785   -28.220703    -1343.841   -2034.3738    13.169331    13.169331    65.846653 
   18700    1079.2216    -1970.722   -2059.8627    794.75612    966.69295   -296.78242    1714.3578    13.168376    13.168376    65.841879 
   18800    1108.6656   -1970.7321   -2062.3048   -101.97453   -832.62033    669.47328   -142.77652    13.168189    13.168189    65.840946 
   18900    1146.9142   -1970.7518   -2065.4837   -1397.1618    528.53504   -4540.8494   -179.17098    13.167854    13.167854    65.839268 
   19000    1078.1184   -1970.8038   -2059.8534    380.90682    272.06348   -935.81407     1806.471    13.166863    13.166863    65.834314 
   19100    1107.4942   -1970.8554   -2062.3314   -53.054164    217.30719   -51.851146   -324.61854    13.166224    13.166224    65.831118 
   19200     1109.766   -1970.8911   -2062.5547    298.90204    1456.1081    609.90197   -1169.3039    13.166314    13.166314    65.831568 
   19300    1046.9358   -1970.9202   -2057.3942    1908.1626    4608.2979    1794.4893   -678.29932     13.16735     13.16735    65.836749 
   19400    1071.8073   -1970.9501   -2059.4784    735.17134    657.66549    2323.7364   -775.88791    13.168741    13.168741    65.843704 
   19500    1123.0384   -1970.9882   -2063.7481   -669.42185   -67.507271    132.26751   -2073.0258     13.16973     13.16973    65.848649 
   19600    1094.8536   -1971.0385   -2061.4703   -46.861084   -384.22751    1333.5199   -1089.8756    13.170191    13.170191    65.850956 
   19700    1125.7344   -1971.0943   -2064.0768   -1009.7266   -906.20807    822.53702   -2945.5089    13.170265    13.170265    65.851327 
   19800    1092.8882   -1971.1383   -2061.4078   -791.78204    967.76611   -1234.0884   -2109.0238    13.169736    13.169736     65.84868 
   19900     1112.012   -1971.1797   -2063.0288   -184.73891   -769.78982    788.81088    -573.2378    13.168389    13.168389    65.841946 
   20000    1100.2011   -1971.2389   -2062.1125   -160.94078    342.22181     1281.355   -2106.3992    13.166213    13.166213    65.831064 
   20100    1068.9475   -1971.2967   -2059.5888    1135.2393    2721.3252    2078.0128   -1393.6201    13.163749    13.163749    65.818743 
   20200    1101.4469    -1971.371   -2062.3475    202.70981    2191.5474    123.03915   -1706.4571    13.161235    13.161235    65.806177 
   20300    1173.5645   -1971.4262   -2068.3594   -1071.1362   -1242.4474   -718.78096   -1252.1802    13.159904    13.159904    65.799518 
   20400    1054.9599   -1971.5035   -2058.6403    1654.0753    3883.7219    269.27522    809.22883    13.159433    13.159433    65.797165 
   20500    1097.9629   -1971.5593    -2062.248    1244.1672     449.9999    3211.3754    71.126247    13.160792    13.160792    65.803961 
   20600    1088.0529   -1971.5986   -2061.4688    375.92958    1898.2479   -78.160205   -692.29896    13.163887    13.163887    65.819435 
   20700     1120.409   -1971.6143    -2064.157   -877.89493   -255.64739   -2113.9376   -264.09977    13.167954    13.167954    65.839771 
   20800    1161.8893   -1971.6495   -2067.6183   -2006.0135   -1717.0572   -3003.7354   -1297.2479    13.171142    13.171142    65.855711 
   20900     1071.797   -1971.6633   -2060.1907   -524.62364   -735.43744   -248.63449   -589.79899    13.173595    13.173595    65.867973 
   21000     1040.384   -1971.6566   -2057.5894    195.58704    288.94017    2404.0871   -2106.2661    13.174614    13.174614    65.873069 
   21100    1132.4486    -1971.627   -2065.1642      -1830.8   -1140.8611   -2524.5668   -1826.9721    13.174253    13.174253    65.871264 
   21200    1104.4627   -1971.6335   -2062.8591   -989.96552   -2666.6036    482.01731   -785.31026    13.171334    13.171334    65.856669 
   21300    1079.7268   -1971.6134   -2060.7959     265.4998    1786.6313    1385.5628   -2375.6946    13.167751    13.167751    65.838756 
   21400      1123.76   -1971.5655   -2064.3849   -55.552783   -1217.9965    1356.7929   -305.45474    13.164935    13.164935    65.824677 
   21500      1116.52   -1971.5256    -2063.747    89.915668    915.17801   -66.150309    -579.2807    13.163068    13.163068     65.81534 
   21600    1119.1577   -1971.5015   -2063.9408   -230.36903    88.266516    385.84019   -1165.2138    13.161891    13.161891    65.809454 
   21700    1126.6263   -1971.4913   -2064.5475    45.374016    469.19473    75.521125   -408.59381    13.161333    13.161333    65.806664 
   21800    1105.9245   -1971.4755   -2062.8218   -346.39616    374.78369   -1532.8646    118.89242    13.162144    13.162144    65.810721 
   21900    1108.9339   -1971.4512    -2063.046    254.41294    2003.0715   -242.18362   -997.64906    13.163378    13.163378    65.816888 
   22000    1103.4964   -1971.4469   -2062.5927   -170.34651     435.5404    -1444.395    497.81508    13.164679    13.164679    65.823396 
   22100    1137.8217   -1971.4104   -2065.3914   -915.35118   -642.52692   -685.86121   -1417.6654    13.166808    13.166808     65.83404 
   22200    1071.3592   -1971.4003   -2059.8916    850.41365     112.8497    1475.8641    962.52715    13.168097    13.168097    65.840484 
   22300    1129.3329   -1971.3908   -2064.6705   -1410.7793   -1587.7975   -1950.6591   -693.88118    13.169011    13.169011    65.845055 
   22400    1127.8215   -1971.4011    -2064.556   -575.47309   -1745.2894    30.583843   -11.713709    13.168463    13.168463    65.842315 
   22500    1062.9719    -1971.419   -2059.2175    627.13905    1129.1964   -874.11477    1626.3355    13.167101    13.167101    65.835504 
   22600    1117.2615   -1971.4022   -2063.6849   -118.39991    944.58403   -1107.2685   -192.51531    13.166349    13.166349    65.831745 
   22700    1055.3496   -1971.3972   -2058.5661    1223.4487    749.28083    550.67026    2370.3951    13.165572    13.165572    65.827862 
   22800    1111.1079   -1971.3725   -2063.1469   -289.03295   -739.57287    1647.2241   -1774.7501     13.16554     13.16554    65.827699 
   22900    1111.1223    -1971.372   -2063.1476   -102.90121    2122.3631   -773.61424   -1657.4525    13.164816    13.164816     65.82408 
   23000    1087.7044   -1971.3618   -2061.2031    591.09503    2030.5979    844.46925   -1101.7821    13.164594    13.164594     65.82297 
   23100    1053.8147   -1971.3568    -2058.399    1671.1365    2623.0311    2557.8559   -167.47748    13.164974    13.164974    65.824868 
   23200    1078.7066   -1971.3557   -2060.4539    258.18905   -536.42005    835.18858    475.79861    13.165979    13.165979    65.829895 
   23300    1105.1402   -1971.3453   -2062.6269   -306.49323    809.38659   -1595.0168   -133.84949    13.167091    13.167091    65.835457 
   23400    1120.7614   -1971.3324   -2063.9042   -986.28398   -2370.1732    931.38604   -1520.0647    13.168051    13.168051    65.840257 
   23500    1083.3834   -1971.3405    -2060.825    206.41256    361.32991   -29.375045    287.28281    13.167985    13.167985    65.839923 
   23600    1144.5457   -1971.3334   -2065.8697   -1755.8664   -283.79311   -3001.3243   -1982.4819    13.168041    13.168041    65.840207 
   23700    1045.3432   -1971.3205   -2057.6629    1294.2751     1255.658    1051.0331    1576.1342    13.167532    13.167532    65.837661 
   23800    1091.7607   -1971.2995   -2061.4759   -519.26868    676.22453   -424.14701   -1809.8836    13.167051    13.167051    65.835253 
   23900    1127.0971   -1971.2879    -2064.383   -909.94744    -542.8036   -1056.2025   -1130.8362    13.165865    13.165865    65.829325 
   24000     1065.413    -1971.289   -2059.2892    469.54966   -141.86499    162.64269    1387.8713    13.164522    13.164522    65.822612 
   24100    1103.9911   -1971.2888   -2062.4754    471.15652    1679.4691   -1249.8971    983.89753     13.16363     13.16363     65.81815 
   24200     1090.308   -1971.2953   -2061.3517    741.81506    700.62828    2291.9444   -767.12752     13.16355     13.16355    65.817751 
   24300    1151.2858   -1971.3118   -2066.4049   -1190.0424   -2191.5381    -241.7648   -1136.8243    13.164132    13.164132    65.820661 
   24400     1098.344   -1971.3402   -2062.0604    651.38114    1999.0202    463.22214   -508.09897    13.164899    13.164899    65.824493 
   24500    1086.1269   -1971.3508   -2061.0619    314.94911   -29.794345    158.29806     816.3436    13.166734    13.166734    65.833668 
   24600    1065.2009   -1971.3657   -2059.3484     614.2683     548.7029   -233.02053    1527.1225      13.1683      13.1683      65.8415 
   24700    1107.1763   -1971.3816   -2062.8312   -604.52207     539.1142   -1534.8015   -817.87894    13.169394    13.169394    65.846971 
   24800    1088.5689   -1971.3824   -2061.2952   -83.451241   -839.92786    700.90882   -111.33469    13.169936    13.169936    65.849682 
   24900    1057.0281   -1971.3818   -2058.6894   -45.503024   -800.25396    675.49108   -11.746195    13.169814    13.169814    65.849068 
   25000    1073.8384   -1971.3583   -2060.0544   -26.175135    495.08744   -3423.8713    2850.2585    13.169315    13.169315    65.846574 
   25100     1119.585   -1971.2946   -2063.7692   -914.49073   -1127.0506     173.1496   -1789.5712    13.169559    13.169559    65.847797 
   25200    1086.6818   -1971.2349   -2060.9918   -380.02733   -1360.8142   -1534.0381    1754.7703    13.169338    13.169338     65.84669 
   25300    1132.7283   -1971.1757   -2064.7359   -1266.3098   -3451.3241    908.26386   -1255.8693    13.168792    13.168792    65.843958 
   25400    1071.5674   -1971.1597   -2059.6682    623.22096   -499.22966    1996.0511    372.84142    13.166682    13.166682    65.833412 
   25500    1120.9229   -1971.1272   -2063.7124   -466.01327   -552.65623    2942.8052   -3788.1887    13.165023    13.165023    65.825114 
   25600    1125.3576   -1971.1036    -2064.055   -171.26961   -307.29893    988.47442   -1194.9843    13.163718    13.163718    65.818588 
   25700    1102.3094   -1971.0777   -2062.1254    449.44339   -1729.2045    2312.5065    765.02817    13.163122    13.163122    65.815609 
   25800    1067.6884   -1971.0587   -2059.2468    1485.0978   -855.39308    3381.4917     1929.195     13.16309     13.16309    65.815452 
   25900    1082.0964   -1971.0552   -2060.4334    1223.3582    1652.6028    819.76928    1197.7024    13.163489    13.163489    65.817443 
   26000    1147.5354   -1971.0493   -2065.8325   -976.08649   -3516.6929    1038.8879   -450.45446    13.165137    13.165137    65.825687 
   26100     1112.059   -1971.0652   -2062.9182   -351.35531   -3236.5982    1655.5974    526.93484    13.166695    13.166695    65.833474 
   26200    1076.6668   -1971.0755   -2060.0052    177.69358    1685.9056   -243.50305   -909.32182    13.168292    13.168292    65.841459 
   26300     1060.629   -1971.0822   -2058.6872    224.24906    2203.1618   -684.62939   -845.78529    13.169595    13.169595    65.847975 
   26400    1122.0539   -1971.0662   -2063.7447   -1324.1206   -2571.0305    834.31975   -2235.6509     13.17069     13.17069    65.853452 
   26500     1107.909   -1971.0591   -2062.5693   -1008.7269   -2506.2879   -339.17738   -180.71535    13.170567    13.170567    65.852837 
   26600    1112.4604    -1971.061   -2062.9472   -823.23496   -1626.2353    131.35123   -974.82082    13.169193    13.169193    65.845966 
   26700     1090.529   -1971.0479   -2061.1225   -38.001859   -179.66293     230.2644   -164.60704    13.167732    13.167732    65.838659 
   26800    1126.6221   -1971.0394   -2064.0953   -416.45452    412.33728   -2783.4511    1121.7502    13.165888    13.165888    65.829438 
   26900    1104.5026    -1971.036   -2062.2649    951.78442    3203.0208   -576.40876    228.74121    13.164055    13.164055    65.820274 
   27000    1114.6399   -1971.0383   -2063.1045    423.37185    593.50681    362.05646    314.55229    13.163396    13.163396    65.816982 
   27100    1125.0918   -1971.0515    -2063.981     121.9443   -356.79204    1112.1456   -389.52067     13.16376     13.16376      65.8188 
   27200      1107.86   -1971.0824   -2062.5886    116.47672    2113.5722    -1932.882    168.73997    13.164613    13.164613    65.823063 
   27300    1162.0469   -1971.1047   -2067.0866    -1577.208   -842.58398   -2385.9788   -1503.0612    13.165926    13.165926    65.829628 
   27400     1085.979   -1971.1464   -2060.8453    382.43246   -149.52099     1879.553   -582.73462    13.166472    13.166472     65.83236 
   27500    1078.5264    -1971.193   -2060.2763    710.39323    62.098831    1957.2931    111.78777     13.16668     13.16668      65.8334 
   27600    1078.4479   -1971.2339   -2060.3107    594.80566    721.69488    3770.4711    -2707.749    13.167128    13.167128     65.83564 
   27700    1070.5945   -1971.2496   -2059.6777    118.21048    282.26345   -561.23579    633.60377    13.168248    13.168248    65.841241 
   27800    1072.4599   -1971.2519   -2059.8341     384.0316   -817.67709     114.5694    1855.2025    13.168742    13.168742    65.843708 
   27900    1099.8643   -1971.2631   -2062.1089    -384.1844   -808.00058   -1197.4419    852.88922    13.168519    13.168519    65.842596 
   28000    1154.0137   -1971.2707   -2066.5891   -1733.7226    -2388.319   -2729.3413    -83.50765    13.168221    13.168221    65.841107 
   28100     1073.216   -1971.2794    -2059.924    483.73694   -85.493749   -1056.1702    2592.8747    13.167734    13.167734    65.838672 
   28200    1107.4861   -1971.2789   -2062.7542   -178.74913   -1598.1015   -1019.1722    2081.0262    13.167455    13.167455    65.837273 
   28300    1074.5309   -1971.2826   -2060.0359    926.46493    1517.0104   -411.62366    1674.0081    13.166978    13.166978    65.834888 
   28400    1112.3571   -1971.2613   -2063.1389   -762.06612   -816.58439    312.02372   -1781.6377    13.167454    13.167454    65.837272 
   28500    1098.0889   -1971.2441   -2061.9432   -168.30665   -540.49509   -1180.9769    1216.5521    13.167666    13.167666    65.838329 
   28600    1095.4117   -1971.2288   -2061.7068     11.13819   -307.18677   -368.83247    709.43381    13.167606    13.167606     65.83803 
   28700    1126.2026   -1971.2213   -2064.2425   -557.28989   -743.08436    58.874951   -987.66027    13.167562    13.167562    65.837812 
   28800    1074.5734   -1971.2331   -2059.9899    440.04366    1035.5323    842.11913   -557.52045    13.167323    13.167323    65.836616 
   28900    1153.3776   -1971.2429   -2066.5087   -1041.1869   -2675.2637   -330.78041   -117.51655    13.166912    13.166912    65.834561 
   29000    1091.3987   -1971.2751   -2061.4216      299.831    52.004144    269.69577    577.79308    13.166003    13.166003    65.830016 
   29100    1098.7243   -1971.3158   -2062.0674    134.50582    461.69779   -304.11221    245.93189    13.164866    13.164866    65.824329 
   29200    1048.4599   -1971.3313   -2057.9312    1107.0616    1156.1503    391.80045    1773.2339    13.164252    13.164252    65.821261 
   29300    1101.4389   -1971.3469   -2062.3227   -84.341568   -48.075559   -330.76971    125.82056    13.163622    13.163622    65.818112 
   29400    1070.4463   -1971.3803   -2059.7962    1089.7873    1263.1438    7.9658326    1998.2522    13.162526    13.162526    65.812628 
   29500     1092.124   -1971.4191   -2061.6255    932.10187    346.62357    1833.8033    615.87873    13.162158    13.162158     65.81079 
   29600    1107.6947   -1971.4642   -2062.9568    1103.9272   -552.45441    1312.9477    2551.2882    13.162475    13.162475    65.812376 
   29700    1051.2747   -1971.5116    -2058.344    1786.0279    68.125931    985.75557    4304.2022    13.163655    13.163655    65.818274 
   29800    1108.2632   -1971.5349   -2063.0744   -96.901026    117.07436    -1547.914    1140.1365    13.166001    13.166001    65.830003 
   29900     1105.608   -1971.5508    -2062.871   -398.52623   -2262.2426     863.4836    203.18028    13.168233    13.168233    65.841166 
   30000    1104.2432   -1971.5639   -2062.7713   -598.50559   -648.79931   -807.38844   -339.32901    13.169994    13.169994    65.849969 
   30100    1066.8404   -1971.5685   -2059.6866    28.166759   -881.53727    1614.8649   -648.82739    13.171273    13.171273    65.856367 
   30200    1110.8894    -1971.571   -2063.3274   -612.90388   -1501.7108    365.69412   -702.69495    13.171279    13.171279    65.856396 
   30300    1078.4395   -1971.5764   -2060.6525   -422.75177    53.644171   -7.1800197   -1314.7195    13.169898    13.169898    65.849488 
   30400    1041.6656   -1971.5754   -2057.6141    1336.9163    301.46842    1272.3764     2436.904    13.167572    13.167572    65.837859 
   30500    1085.6852   -1971.5545   -2061.2291    234.59666   -647.64688    1088.0727    263.36414    13.165683    13.165683    65.828413 
   30600    1075.8239   -1971.5207   -2060.3808      565.495    982.90342    1001.5817   -288.00009    13.164215    13.164215    65.821075 
   30700    1168.5866   -1971.4908   -2068.0129    -1226.558   -2527.5016     238.5916   -1390.7639     13.16333     13.16333    65.816651 
   30800    1083.1603   -1971.4869   -2060.9529    476.15503   -1165.2489    1546.3811     1047.333     13.16278     13.16278    65.813898 
   30900    1079.3121   -1971.4866   -2060.6348    1093.9253    -1149.886    2309.1092    2122.5526    13.162832    13.162832    65.814161 
   31000    1073.8796   -1971.4825    -2060.182    955.94557    610.14223    2921.5363   -663.84181    13.163831    13.163831    65.819155 
   31100    1090.9476    -1971.461   -2061.5702    812.10029   -1731.9804    2544.8447    1623.4366      13.1656      13.1656    65.828001 
   31200    1113.5979   -1971.4359   -2063.4161   -243.39524   -2228.8886    1998.8524   -500.14949    13.167897    13.167897    65.839487 
   31300    1131.4908   -1971.4128   -2064.8708   -1365.9643   -1747.5624   -1380.4165   -969.91413    13.169938    13.169938    65.849688 
   31400    1081.6227   -1971.3957   -2060.7348   -377.66487   -730.83131    718.03649   -1120.1998     13.17084     13.17084    65.854201 
   31500    1081.7649   -1971.3671   -2060.7179   -90.612258     275.6481   -258.87079   -288.61408    13.171136    13.171136    65.855681 
   31600    1092.5717   -1971.3242   -2061.5676   -738.19483   -1465.2322    734.84441   -1484.1967     13.17092     13.17092    65.854598 
   31700    1093.6663   -1971.2898   -2061.6237    -127.4611   -1397.7303    1545.6937    -530.3467    13.169333    13.169333    65.846664 
   31800    1089.5285   -1971.2744   -2061.2665    109.55443    1424.9141    490.93044   -1587.1813    13.167118    13.167118     65.83559 
   31900    1093.7632   -1971.2581   -2061.5999    803.94091    1317.4032   -228.21874    1322.6382    13.164874    13.164874    65.824369 
   32000    1084.2199   -1971.2474   -2060.8009    1262.6696    938.44356    2874.6417   -25.076574    13.163519    13.163519    65.817594 
   32100    1110.0479   -1971.2087   -2062.8956    248.65466   -241.71481    1098.2365   -110.55774    13.163953    13.163953    65.819766 
   32200    1145.0944   -1971.1915   -2065.7732   -1007.4893   -792.75831    -1465.628   -764.08165    13.164641    13.164641    65.823204 
   32300    1084.9547   -1971.1928   -2060.8071    669.63455    1195.6152    836.54853   -23.260093    13.165494    13.165494    65.827472 
   32400    1092.1502   -1971.1673   -2061.3759     310.7672   -238.19585    993.79888    176.69857    13.167432    13.167432    65.837161 
   32500    1146.4576    -1971.118   -2065.8123   -1815.8162   -3445.9118   -1131.0916   -870.44522    13.170005    13.170005    65.850027 
   32600    1124.4029   -1971.0877   -2063.9603   -993.87809    799.27347   -3534.6943   -246.21341    13.171077    13.171077    65.855386 
   32700    1054.5283   -1971.0935   -2058.1946    1201.1987    2382.8369    748.99386    471.76517    13.170435    13.170435    65.852174 
   32800    1092.8959   -1971.0719    -2061.342   -653.70665   -1117.0372    63.447086   -907.52982    13.169987    13.169987    65.849934 
   32900    1124.6065   -1971.0656   -2063.9549   -331.87196    1200.2387   -2205.4484    9.5938069    13.168236    13.168236    65.841178 
   33000    1088.0353   -1971.0862   -2060.9549    109.80915    544.37362    726.81811   -941.76428    13.165858    13.165858    65.829291 
   33100    1118.6239   -1971.1077   -2063.5029   -57.346319    269.81919    793.33855   -1235.1967    13.163923    13.163923    65.819617 
   33200    1099.6046   -1971.1465   -2061.9708    909.74145   -627.36249    1964.8244    1391.7625    13.162232    13.162232    65.811162 
   33300    1077.5742   -1971.1992   -2060.2039    1689.8115    2622.5205    466.14509    1980.7689    13.161168    13.161168    65.805842 
   33400    1117.7884   -1971.2292   -2063.5555    259.05666    1649.7964   -1999.0291    1126.4027    13.162177    13.162177    65.810885 
   33500    1119.8009   -1971.2402   -2063.7327   -322.64774   -689.74602    591.93726   -870.13445    13.164454    13.164454     65.82227 
   33600    1077.3338   -1971.2419   -2060.2266      491.555    714.84285    707.52358    52.298558    13.167329    13.167329    65.836646 
   33700    1047.7381   -1971.2277    -2057.768    858.89906   -886.57505    1948.2043    1515.0679    13.170711    13.170711    65.853554 
   33800    1055.7111     -1971.15   -2058.3488     237.4204    210.86485    390.41342    110.98292    13.175161    13.175161    65.875807 
   33900    1099.5255    -1971.034   -2061.8518   -1528.3248   -2331.5446   -772.91216   -1480.5175     13.17856     13.17856    65.892802 
   34000    1055.8635   -1970.9143   -2058.1257   -642.11771    720.52443   -206.37843   -2440.4991    13.179314    13.179314    65.896571 
   34100    1103.4774   -1970.7816   -2061.9258   -1532.0202   -355.06551   -3582.5325    -658.4627    13.177804    13.177804    65.889019 
   34200    1062.6618    -1970.644   -2058.4169    400.96072    857.57675   -1214.1282    1559.4336    13.174566    13.174566    65.872828 
   34300    1109.4733   -1970.4672   -2062.1066     -596.034   -1532.3586    508.76555   -764.50892    13.171874    13.171874     65.85937 
   34400    1121.0423   -1970.2963   -2062.8913   -105.86037   -262.88325    822.15096   -876.84881    13.169278    13.169278    65.846392 
   34500    1125.8938   -1970.1524   -2063.1481   -344.01896   -186.10267    831.72407   -1677.6783    13.166923    13.166923    65.834614 
   34600    1102.8948   -1970.0574   -2061.1535    877.19766   -176.64976    2580.9658    227.27695     13.16458     13.16458    65.822902 
   34700    1117.3499   -1969.9974   -2062.2874    694.72371    -891.1017    3387.2815   -412.00861    13.163196    13.163196    65.815982 
   34800    1119.0296   -1969.9583   -2062.3871     257.8629    31.443332    2140.0344    -1397.889    13.163287    13.163287    65.816434 
   34900    1096.8792    -1969.958   -2060.5572    768.79273   -2556.6037    2352.2335    2510.7484    13.164156    13.164156    65.820778 
   35000    1050.1128   -1969.9565   -2056.6929    2356.3693    4533.1939    2409.3936    126.52038     13.16676     13.16676    65.833798 
   35100    1127.1703    -1969.918   -2063.0191   -1234.7651   -60.917278   -1751.6004   -1891.7777    13.171683    13.171683    65.858413 
   35200    1121.5388   -1969.8639   -2062.4999   -1810.8666   -1109.3324   -1271.6646   -3051.6028    13.176011    13.176011    65.880054 
   35300    1096.1413   -1969.8265   -2060.3647   -1090.1374    365.57817   -1613.4709   -2022.5193     13.17837     13.17837    65.891848 
   35400    1078.7671    -1969.791   -2058.8942    -982.6436   -47.412079   -894.06354   -2006.4552    13.178935    13.178935    65.894675 
   35500    1108.9134   -1969.7342   -2061.3274   -1268.2611   -903.59913   -1973.8061   -927.37818     13.17832     13.17832    65.891599 
   35600    1090.0273   -1969.6668   -2059.7001   -574.22191    1592.8184    -363.3507   -2952.1334    13.176236    13.176236    65.881178 
   35700    1138.5438   -1969.6031   -2063.6437   -1260.5647   -1642.2985   -1365.9188   -773.47688    13.172828    13.172828    65.864138 
   35800    1124.7347   -1969.5472   -2062.4471   -227.08828   -2181.6942    176.75216    1323.6772    13.169068    13.169068    65.845342 
   35900    1101.0599   -1969.5126   -2060.4571    1327.8914    1436.3566    1175.2215     1372.096    13.165838    13.165838    65.829192 
   36000    1125.3323   -1969.4903   -2062.4396    295.26884   -1442.2095    1119.6587    1208.3573    13.164332    13.164332     65.82166 
   36100    1160.2078   -1969.4871   -2065.3171   -631.26891    -1392.924     1175.136   -1676.0188    13.164334    13.164334    65.821671 
   36200    1076.8495    -1969.512   -2058.4568    2236.0008    1052.1266    4069.2697    1586.6063    13.165209    13.165209    65.826045 
   36300     1082.534   -1969.5336   -2058.9479    1249.5297    178.05405      919.433    2651.1021    13.168212    13.168212    65.841062 
   36400    1088.0298   -1969.5616   -2059.4298    692.93383   -244.60955    3296.9224   -973.51137    13.172053    13.172053    65.860266 
   36500    1159.5917   -1969.5875   -2065.3666   -2343.9934    -3908.736    260.46153   -3383.7056    13.175698    13.175698    65.878489 
   36600    1124.0671    -1969.633   -2062.4778   -2147.7412    -1014.809   -3526.2908   -1902.1238    13.177346    13.177346    65.886731 
   36700     1115.328   -1969.6688   -2061.7918   -1411.0325   -1105.3342   -263.56551   -2864.1978    13.177161    13.177161    65.885804 
   36800    1093.0302   -1969.6996   -2059.9809   -368.79753   -349.28744    139.21573   -896.32087    13.175523    13.175523    65.877616 
   36900    1124.2821   -1969.7394    -2062.602   -941.61438   -2131.3892   -416.30238   -277.15153    13.172716    13.172716    65.863579 
   37000     1127.362   -1969.7541   -2062.8711   -740.86456    700.72972   -2321.5073   -601.81612    13.170214    13.170214    65.851068 
   37100    1087.3731   -1969.7592   -2059.5732    536.36698    3658.7286   -926.83974   -1122.7879    13.168176    13.168176     65.84088 
   37200     1088.894   -1969.7633    -2059.703    146.01911    1229.9413    67.154006   -859.03801     13.16641     13.16641    65.832052 
   37300    1131.7432   -1969.8045   -2063.2833    356.21648    888.06655    268.49896   -87.916072    13.164286    13.164286    65.821432 
   37400    1119.9157   -1969.8496   -2062.3515    1071.4507    2347.2033    547.26081    319.88795    13.163324    13.163324    65.816622 
   37500    1100.5533    -1969.888   -2060.7906    1013.0124    1073.3564    2080.6304   -114.94965    13.164602    13.164602    65.823009 
   37600    1074.9595   -1969.9219   -2058.7105    406.57336   -153.43355    2805.2794   -1432.1257     13.16721     13.16721    65.836052 
   37700    1082.3488   -1969.9845   -2059.3835    467.05292     1901.357   -1124.3417     624.1435    13.169112    13.169112    65.845559 
   37800    1103.1673   -1970.0396   -2061.1582   -40.021726    2269.1701   -1719.5601   -669.67523    13.170872    13.170872    65.854362 
   37900    1114.7941   -1970.1011     -2062.18   -415.60395   -502.20183   -650.12807   -94.481963     13.17176     13.17176      65.8588 
   38000    1114.0283   -1970.1555   -2062.1712   -490.25971   -297.35543   -1100.8884   -72.535299    13.172056    13.172056    65.860278 
   38100    1064.6553   -1970.2028   -2058.1404    255.35573    126.80797    168.17903     471.0802    13.171865    13.171865    65.859327 
   38200    1059.9222   -1970.2504    -2057.797    1036.8375    350.02994    2077.9158    682.56684    13.170892    13.170892    65.854458 
   38300    1115.8407    -1970.294   -2062.4594    -96.94846   -790.21622    857.04357   -357.67272    13.169668    13.169668     65.84834 
   38400    1091.7737   -1970.3491   -2060.5266    966.26775    62.897784    3437.7651    -601.8596    13.168328    13.168328    65.841639 
   38500    1150.1307   -1970.4004    -2065.398   -560.47633   -748.89698     837.1919   -1769.7239    13.167433    13.167433    65.837166 
   38600     1109.987   -1970.4617   -2062.1435    304.11915   -736.16849    2062.4702   -413.94428    13.166435    13.166435    65.832174 
   38700     1102.794   -1970.5192   -2061.6069   -361.50117   -1127.1336     1677.364   -1634.7339    13.166048    13.166048    65.830242 
   38800    1115.7508   -1970.5766   -2062.7345    35.404621   -1742.6731      679.712    1169.1749    13.165871    13.165871    65.829357 
   38900    1111.8364   -1970.6317   -2062.4663    61.559837   -578.44554    2287.3616   -1524.2365    13.165963    13.165963    65.829815 
   39000    1109.1852   -1970.6973   -2062.3129   -411.31999    -1441.034   -667.87348    874.94748    13.166312    13.166312    65.831558 
   39100    1061.1408   -1970.7601   -2058.4073    455.04073    971.76719    1194.9515   -801.59651     13.16676     13.16676      65.8338 
   39200    1132.8522   -1970.8028   -2064.3733   -677.62032   -1359.0845   -151.57996    -522.1965    13.167437    13.167437    65.837187 
   39300    1128.8813   -1970.8529   -2064.0954   -948.87393    1056.6667   -2280.4041   -1622.8844    13.167893    13.167893    65.839463 
   39400    1109.6323    -1970.913   -2062.5655   -23.262526   -2141.9889    2748.4689   -676.26754    13.167699    13.167699    65.838494 
   39500    1162.3074   -1970.9659   -2066.9693    -1364.912   -1573.1716   -3050.8666    529.30205    13.167449    13.167449    65.837246 
   39600    1117.1891   -1971.0156   -2063.2923   -438.97493   -1507.7831    258.60241   -67.744133      13.1666      13.1666    65.833001 
   39700    1104.4456    -1971.048   -2062.2722    92.070091   -904.84583    750.28881    430.76728    13.166106    13.166106    65.830531 
   39800    1088.0336   -1971.0999   -2060.9685    666.12638   -412.79208    852.45415    1558.7171    13.165494    13.165494    65.827468 
   39900    1057.4245   -1971.1516   -2058.4919    1683.9726    2422.7449    1517.4774    1111.6956    13.165163    13.165163    65.825816 
   40000    1095.1422   -1971.1937   -2061.6494    445.05771    448.96966   -435.63059    1321.8341    13.165519    13.165519    65.827593 
   40100     1125.825   -1971.2413   -2064.2313   -770.05719    -1007.471    889.75284   -2192.4535    13.165876    13.165876    65.829378 
   40200    1113.9472   -1971.2844   -2063.2933   -648.26735   -1107.2221   -242.78626   -594.79367    13.165833    13.165833    65.829167 
   40300    1097.9117   -1971.3329   -2062.0173    693.23394    1461.0841    759.35191   -140.73415     13.16546     13.16546    65.827299 
   40400    1039.7408   -1971.3667   -2057.2464    1409.8293    1300.3751    2388.7539      540.359    13.165522    13.165522    65.827609 
   40500     1150.359    -1971.376   -2066.3925   -1498.5988   -1766.5891   -1492.3766   -1236.8308    13.166174    13.166174    65.830872 
   40600    1096.9801   -1971.4015    -2062.009   -148.14968    936.67619   -816.16252   -564.96271      13.1663      13.1663    65.831501 
   40700    1109.2188    -1971.426   -2063.0444   -14.955709   -497.38242    776.58703   -324.07175    13.166302    13.166302     65.83151 
   40800     1064.796   -1971.4411   -2059.3903    779.43892    1878.7509   -1342.3157    1801.8815    13.166822    13.166822    65.834111 
   40900    1108.3109   -1971.4322   -2062.9756   -808.07156    1775.9713   -2161.3509   -2038.8351    13.167977    13.167977    65.839885 
   41000    1095.1891   -1971.4461   -2061.9057   -34.770901    1382.9963   -407.07072   -1080.2383     13.16805     13.16805     65.84025 
   41100    1097.7643   -1971.4631   -2062.1354   -33.435349    1173.7177    10.466387   -1284.4901    13.167457    13.167457    65.837287 
   41200     1078.265   -1971.4776   -2060.5393    851.66561    2643.5099   -1563.1319    1474.6188    13.166937    13.166937    65.834687 
   41300    1111.4308   -1971.4901   -2063.2912   -571.85757   -1624.1038   -168.31013    76.841282    13.166874    13.166874    65.834372 
   41400    1115.4778   -1971.4814   -2063.6168   -288.41769    -1225.476    939.60768   -579.38472    13.167045    13.167045    65.835226 
   41500    1112.7406   -1971.4721   -2063.3814   -318.73807   -1028.9827    202.54601    -129.7775    13.167214    13.167214    65.836071 
   41600    1099.6297   -1971.4571   -2062.2835     287.1145     912.6542   -163.63376    112.32307    13.167195    13.167195    65.835977 
   41700    1093.4246   -1971.4211   -2061.7349    -289.6071   -1226.6016    984.63341    -626.8531    13.167831    13.167831    65.839157 
   41800    1114.4943   -1971.3819    -2063.436   -630.69537   -1091.7467   -1082.1336    281.79418    13.168513    13.168513    65.842565 
   41900    1155.8441   -1971.3555    -2066.825   -1699.4745   -2914.6302   -1397.1788   -786.61449    13.168645    13.168645    65.843225 
   42000    1077.1987   -1971.3508   -2060.3244    522.78896   -555.45291    3726.2851   -1602.4653    13.167899    13.167899    65.839495 
   42100    1108.7428   -1971.3464   -2062.9255   -233.36379    -740.0055    69.647613   -29.733472     13.16709     13.16709    65.835451 
   42200    1109.2837    -1971.328   -2062.9518   -611.54714   -2044.8946    610.25654   -400.00335    13.166606    13.166606    65.833029 
   42300    1069.6262   -1971.3101   -2059.6583     859.4735    120.87936    1889.3701    568.17102    13.166182    13.166182    65.830911 
   42400    1128.8982   -1971.2869   -2064.5308   -1015.2164   -1542.7731   -1903.2473    400.37139    13.166395    13.166395    65.831974 
   42500    1100.4833   -1971.2725   -2062.1694    183.33968   -1925.8964     1565.134    910.78142    13.166728    13.166728    65.833638 
   42600    1140.4442   -1971.2514   -2065.4489   -811.99803     119.2907   -151.66927   -2403.6155    13.167383    13.167383    65.836917 
   42700    1068.0069    -1971.256   -2059.4704    835.21041    246.13543    2884.0597   -624.56392    13.167432    13.167432    65.837158 
   42800    1077.3448   -1971.2317   -2060.2174   -48.444602   -121.88566   -640.72339    617.27524    13.168263    13.168263    65.841316 
   42900    1062.7046   -1971.2058   -2058.9822    1090.2153    775.55271    432.77475    2062.3184    13.168776    13.168776     65.84388 
   43000    1111.4525   -1971.1675   -2062.9704   -334.86075    386.21519   -583.91838   -806.87907    13.169542    13.169542    65.847708 
   43100     1106.401   -1971.1313    -2062.517   -232.32881   -15.188543   -668.92839    -12.86951     13.16981     13.16981    65.849049 
   43200    1087.9958   -1971.1031   -2060.9686   -10.763612   -796.39915    1353.0335   -588.92521    13.169441    13.169441    65.847203 
   43300    1122.4614   -1971.0848    -2063.797   -435.20771    118.38023   -727.78465    -696.2187    13.168762    13.168762    65.843812 
   43400    1093.6801   -1971.0497   -2061.3846   -460.03028     -260.654    367.01089   -1486.4477    13.168602    13.168602    65.843009 
   43500    1068.6454   -1970.9957   -2059.2628     965.0515    1317.1842     280.9594    1297.0109    13.168188    13.168188    65.840938 
   43600    1089.0167   -1970.9521   -2060.9019   -281.29833    279.35826   -953.27222   -169.98105    13.167409    13.167409    65.837044 
   43700    1103.4953    -1970.929   -2062.0746    404.52555    967.85919     178.9252    66.792253    13.165887    13.165887    65.829436 
   43800    1105.0606    -1970.922    -2062.197    314.47294     172.8416    1091.4448   -320.86756    13.164399    13.164399    65.821997 
   43900    1111.8379   -1970.9073    -2062.742   -117.61014   -1375.9368   -1002.8151    2025.9216    13.163836    13.163836    65.819181 
   44000    1082.5023   -1970.8837   -2060.2954    1124.6713    2300.9945     266.1301    806.88931    13.164344    13.164344    65.821722 
   44100    1086.3033   -1970.8471   -2060.5728   -164.70696    400.50638   -1310.0238    415.39656    13.166119    13.166119    65.830593 
   44200    1135.5204     -1970.82   -2064.6108   -934.31321   -707.17435   -1239.5519   -856.21334    13.167641    13.167641    65.838203 
   44300    1117.5644   -1970.8019   -2063.1097   -987.29526    4.8841577   -1732.9922   -1233.7777    13.168844    13.168844    65.844219 
   44400    1075.7633   -1970.8002   -2059.6553    808.24858    2316.8548   -14.362448    122.25342    13.169249    13.169249    65.846247 
   44500     1128.672   -1970.7934   -2064.0186   -1287.5592   -2873.3285   -967.63367   -21.715439    13.169806    13.169806    65.849031 
   44600    1075.2078    -1970.802   -2059.6112    220.49867    912.63309    1455.0668   -1706.2038    13.169425    13.169425    65.847123 
   44700    1096.0739   -1970.8128   -2061.3454    173.65993   -400.47303    18.145194    903.30762    13.168414    13.168414    65.842068 
   44800    1098.3769    -1970.836   -2061.5589    473.72783    -425.9997    1649.9543    197.22887    13.167029    13.167029    65.835146 
   44900    1069.3386   -1970.8736    -2059.198    1004.6593    2329.7667    1339.4779    -655.2667    13.165758    13.165758    65.828789 
   45000    1066.1985   -1970.8908   -2058.9559     1310.531    2062.7813    573.71079     1295.101    13.165622    13.165622    65.828111 
   45100    1152.7791   -1970.9113   -2066.1276   -1323.2979   -1332.3461   -1006.9614   -1630.5862    13.166273    13.166273    65.831366 
   45200    1095.4905   -1970.9423   -2061.4267    443.39249    1814.4548    2863.9141   -3348.1914    13.166937    13.166937    65.834686 
   45300    1091.9102   -1970.9749   -2061.1636     759.2877    750.77121    1083.9457    443.14621    13.167788    13.167788    65.838938 
   45400    1098.3563   -1970.9818   -2061.7029    377.27506     607.9354    727.58688   -203.69708    13.169584    13.169584    65.847919 
   45500    1098.5943   -1970.9921   -2061.7329   -522.02003   -1201.4876    22.259724   -386.83219    13.171422    13.171422    65.857108 
   45600    1118.5372   -1971.0135   -2063.4015   -941.49563   -1257.9026    -638.1173   -928.46697    13.172241    13.172241    65.861205 
   45700    1041.8653    -1971.018   -2057.0732    1501.0026    1727.9988    1580.3684    1194.6406    13.172794    13.172794    65.863969 
   45800     1057.503    -1970.977   -2058.3238   -278.74871    2437.4261    -506.4893   -2767.1829    13.174088    13.174088    65.870439 
   45900    1109.1549   -1970.9445   -2062.5577   -1361.6919    869.85735    -2138.959   -2815.9741    13.173859    13.173859    65.869295 
   46000    1123.4443   -1970.9289   -2063.7223   -1636.9506    -2154.468   -97.640696   -2658.7431    13.171468    13.171468    65.857341 
   46100    1110.5068   -1970.9253   -2062.6501   -72.081422   -86.153796    2133.7719   -2263.8623    13.167642    13.167642     65.83821 
   46200    1092.9858   -1970.9169   -2061.1945    1410.6663    88.185931    2757.6486    1386.1645    13.164103    13.164103    65.820514 
   46300    1109.7006   -1970.9126   -2062.5708    519.94202   -1366.4759    1690.1169     1236.185    13.162189    13.162189    65.810945 
   46400    1111.1017   -1970.9275   -2062.7014    428.75452    434.92586   -135.06144    986.39913    13.161246    13.161246    65.806229 
   46500    1153.1334   -1970.9436   -2066.1893    -550.3515    -1371.402    201.68259   -481.33513    13.161779    13.161779    65.808893 
   46600    1078.9496   -1970.9921   -2060.1103    993.92501    959.60335    3664.1952   -1642.0236    13.162712    13.162712     65.81356 
   46700    1048.0044   -1971.0304   -2057.5926    2505.9184       4019.6    1166.1933    2331.9618    13.164371    13.164371    65.821856 
   46800    1108.0962    -1971.066   -2062.5917   -339.73634    1801.9844   -2881.9622    60.768812    13.167114    13.167114    65.835572 
   46900    1105.3898   -1971.1126   -2062.4147   -829.20762    44.775384   -1046.7602    -1485.638    13.168973    13.168973    65.844864 
   47000    1069.4617   -1971.1709   -2059.5055      190.093   -804.20762    2309.6796   -935.19295    13.169198    13.169198    65.845991 
   47100    1113.4659   -1971.2198    -2063.189   -558.52032    199.73394   -1124.3325   -750.96239     13.16883     13.16883     65.84415 
   47200     1104.488   -1971.2524     -2062.48   -613.28234     183.2164    -530.8404    -1492.223    13.168072    13.168072    65.840358 
   47300    1081.8504   -1971.3181    -2060.676    671.88244    478.04787   -838.10697    2375.7064    13.165989    13.165989    65.829946 
   47400    1096.9921   -1971.3619   -2061.9704    345.80647    2012.3821   -183.95913   -791.00355    13.164471    13.164471    65.822357 
   47500    1066.6266   -1971.3732   -2059.4736    1267.0942    2115.4859     2363.198   -677.40131     13.16427     13.16427    65.821349 
   47600    1114.7728   -1971.3763   -2063.4534    163.12841   -931.87667    1715.9484   -294.68647    13.165109    13.165109    65.825545 
   47700    1094.6366   -1971.3796   -2061.7935    12.027176   -339.56544   -884.45889    1260.1059    13.166253    13.166253    65.831266 
   47800    1121.1968   -1971.3676   -2063.9754    -828.8947    2848.2861    -4486.558   -848.41222    13.167398    13.167398    65.836991 
   47900    1071.4033    -1971.357   -2059.8519    328.85156    1545.9692    1388.6825    -1948.097    13.167971    13.167971    65.839854 
   48000    1072.5584   -1971.3335   -2059.9239    465.18604   -443.97474    950.66862    888.86424    13.168358    13.168358    65.841789 
   48100    1097.2088    -1971.306   -2061.9324   -26.024478     234.0394    677.21299   -989.32582    13.168543    13.168543    65.842716 
   48200    1130.1772   -1971.2703   -2064.6198   -703.75242   -243.73998   -2872.1087    1004.5914    13.168561    13.168561    65.842805 
   48300     1083.066   -1971.2433   -2060.7015    21.166347    871.99981   -953.48302    144.98224     13.16803     13.16803    65.840151 
   48400    1131.9388   -1971.1871   -2064.6821   -1248.9002     300.8975   -1416.4725   -2631.1256    13.167843    13.167843    65.839217 
   48500    1080.9975   -1971.1336    -2060.421    1125.1474     348.4145    3074.2709   -47.243103    13.167245    13.167245    65.836226 
   48600    1096.6614   -1971.0875   -2061.6687     7.094395    935.25853    1050.4339   -1964.4093      13.1668      13.1668    65.834002 
   48700    1126.5587   -1971.0518   -2064.1024   -678.85106   -579.09076    836.49433   -2293.9568    13.166097    13.166097    65.830484 
   48800    1111.7236   -1971.0394   -2062.8647    31.558893   -1563.0576    3321.3154   -1663.5812    13.164866    13.164866    65.824329 
   48900    1125.1601   -1971.0357   -2063.9709   -119.26275    520.13081    215.48576   -1093.4048    13.164085    13.164085    65.820425 
   49000     1078.671   -1971.0205   -2060.1158    1131.5735    3172.5289   -747.90119     970.0929     13.16436     13.16436    65.821801 
   49100    1114.2301   -1970.9823   -2063.0146   -347.19457   -2437.0666    1753.5161   -358.03316    13.166179    13.166179    65.830896 
   49200    1071.2646   -1970.9409   -2059.4244    812.55414   -347.00959    907.88172    1876.7903    13.168375    13.168375    65.841873 
   49300    1097.9321   -1970.9015   -2061.5877   -485.00887   -219.05783   -96.594525   -1139.3743    13.170622    13.170622     65.85311 
   49400    1057.2598   -1970.8594   -2058.1862    471.92101   -390.15287    882.28449    923.63141    13.172253    13.172253    65.861264 
   49500    1101.9557   -1970.7942   -2061.8126   -1309.9806   -502.07513   -361.20274   -3066.6638    13.173574    13.173574     65.86787 
   49600    1091.8873   -1970.7354   -2060.9223   -1352.5501    421.69938   -5285.4396    806.08992    13.173223    13.173223    65.866113 
   49700    1099.3668   -1970.6698   -2061.4745   -93.071057    538.12397   -138.22956   -679.10758    13.171406    13.171406     65.85703 
   49800    1025.1666   -1970.5776   -2055.2536    1699.6005    1340.4339   -204.71748    3963.0851    13.169648    13.169648    65.848238 
   49900    1115.5212   -1970.4608   -2062.5997   -52.728066    1924.4176   -1085.5097   -997.09204    13.168881    13.168881    65.844407 
   50000    1115.0801   -1970.3796   -2062.4821   -557.93463    -4905.202    2616.0135    615.38468    13.167769    13.167769    65.838845 
Loop time of 114.451 on 1 procs for 50000 steps with 640 atoms

Pair  time (%) = 99.9871 (87.3626)
Neigh time (%) = 9.37324 (8.18976)
Comm  time (%) = 2.16922 (1.89533)
Outpt time (%) = 0.10214 (0.0892439)
Other time (%) = 2.81894 (2.46302)

Nlocal:    640 ave 640 max 640 min
Histogram: 1 0 0 0 0 0 0 0 0 0
Nghost:    2709 ave 2709 max 2709 min
Histogram: 1 0 0 0 0 0 0 0 0 0
Neighs:    21387 ave 21387 max 21387 min
Histogram: 1 0 0 0 0 0 0 0 0 0

Total # of neighbors = 21387
Ave neighs/atom = 33.4172
Neighbor list builds = 5000
Dangerous builds = 0
unfix		1

# Melt half the system
region  liquid block INF INF INF INF INF ${nzhalf}
region  liquid block INF INF INF INF INF 10
group	liquid_group region liquid
319 atoms in group liquid_group

# Heat up one side to Tmelt to make sure it is melted
fix 2 liquid_group npt temp ${Tmelt} ${Tmelt} 1 z 0 0 10 drag 1.0
fix 2 liquid_group npt temp 2000 ${Tmelt} 1 z 0 0 10 drag 1.0
fix 2 liquid_group npt temp 2000 2000 1 z 0 0 10 drag 1.0
run		${eqsteps}
run		50000
Memory usage per processor = 3.0567 Mbytes
Step Temp TotEng PotEng Press Pxx Pyy Pzz Lx Ly Lz 
   50000    1115.0801   -1970.3796   -2062.4821   -557.93463    -4905.202    2616.0135    615.38468    13.167769    13.167769    65.838845 
   50100    1100.7911   -1970.1931   -2061.1154    117.06336   -2523.7304    1644.6728    1230.2477    13.167769    13.167769    65.838906 
   50200     1130.194   -1969.6869   -2063.0378   -830.87418   -5509.8438    2892.4944    124.72687    13.167769    13.167769    65.839202 
   50300    1142.6115   -1968.9528   -2063.3293   -1046.2276   -4503.3117    1405.8683   -41.239406    13.167769    13.167769    65.839578 
   50400    1130.7926   -1968.0944   -2061.4947   -139.92752   -1314.1629    2010.3042   -1115.9239    13.167769    13.167769    65.840053 
   50500    1107.6735   -1967.2383    -2058.729    836.24232   -1051.0442    1899.9672    1659.8039    13.167769    13.167769    65.840611 
   50600    1151.7336   -1966.4158   -2061.5458    60.112933   -4440.9076     3009.636    1611.6104    13.167769    13.167769     65.84162 
   50700    1121.0533   -1965.6494   -2058.2453    1142.0621   -3127.8017    4209.4319    2344.5562    13.167769    13.167769    65.843323 
   50800    1116.9961   -1964.8831   -2057.1438    1467.9266   -2350.4621    4116.3662    2637.8756    13.167769    13.167769    65.845768 
   50900    1134.4717   -1964.0924   -2057.7966    1533.8392   -1994.3059    5411.9615     1183.862    13.167769    13.167769    65.848823 
   51000    1135.4474   -1963.2937   -2057.0785    1594.5423     -393.147    4844.5343    332.23947    13.167769    13.167769    65.852096 
   51100    1152.6143   -1962.4629   -2057.6657    1217.7621   -1058.3815    2605.2686    2106.3993    13.167769    13.167769    65.855588 
   51200    1174.0012   -1961.6124   -2058.5817    1210.3987   -1818.7028    5669.7349   -219.83596    13.167769    13.167769    65.859685 
   51300    1190.4441   -1960.7238   -2059.0512    1546.2997      151.857    3574.5317    912.51027    13.167769    13.167769    65.864083 
   51400    1164.4654   -1959.8724    -2056.054    1932.8952   -2271.9412    6826.7405    1243.8862    13.167769    13.167769    65.869151 
   51500    1178.8806   -1959.0045   -2056.3768    1953.3333   -460.14283    3800.7581    2519.3847    13.167769    13.167769    65.874838 
   51600     1190.313   -1958.1296   -2056.4461    1555.4363   -2741.7686    3398.8198    4009.2577    13.167769    13.167769     65.88155 
   51700    1183.8528    -1957.256    -2055.039    2757.2298     759.6922    5765.7689    1746.2282    13.167769    13.167769    65.889575 
   51800    1182.5465   -1956.3725   -2054.0476     2580.882   -1621.7785    6680.3415    2684.0831    13.167769    13.167769    65.898381 
   51900    1198.6129   -1955.4508   -2054.4529    2749.5804   -2681.4903    7162.5921    3767.6395    13.167769    13.167769    65.908022 
   52000    1228.7276   -1954.5671   -2056.0566    2331.5272   -1418.8918    4001.7111    4411.7623    13.167769    13.167769    65.918732 
   52100    1226.2097   -1953.6567   -2054.9382    2176.9842   -293.74551     5404.561     1420.137    13.167769    13.167769    65.930964 
   52200    1246.4369   -1952.7563   -2055.7085    2552.6081   -497.17677    4878.4712    3276.5298    13.167769    13.167769     65.94418 
   52300     1202.504   -1951.8471   -2051.1706    3645.2279    1385.2233    6672.9026    2877.5579    13.167769    13.167769    65.958476 
   52400     1201.767   -1950.9478   -2050.2105    4052.8457    884.83415    6786.6226    4487.0802    13.167769    13.167769    65.973886 
   52500    1217.6533   -1950.0489   -2050.6237    3480.9958     1451.662    5164.4012    3826.9242    13.167769    13.167769     65.99075 
   52600    1271.7005   -1949.1354   -2054.1743    2251.1045   -478.40458    3095.0576    4136.6605    13.167769    13.167769    66.009158 
   52700    1236.1917   -1948.1965   -2050.3025    3408.8088    887.57399    5763.1442    3575.7083    13.167769    13.167769    66.029176 
   52800    1214.2853   -1947.2864    -2047.583      4127.72    2501.6913    5904.3437     3977.125    13.167769    13.167769    66.050209 
   52900    1290.3805   -1946.3741   -2052.9559    2444.6774    730.45243    5283.5074    1320.0723    13.167769    13.167769    66.072159 
   53000    1257.5866   -1945.4477   -2049.3209    2863.7669     823.8981    4969.1148    2798.2878    13.167769    13.167769    66.094922 
   53100    1244.9855   -1944.5083   -2047.3407    3736.2225    2451.6129    7067.5619    1689.4926    13.167769    13.167769    66.118472 
   53200     1267.935   -1943.5809   -2048.3089    3284.8214    917.93894     4909.514    4027.0114    13.167769    13.167769    66.142385 
   53300     1225.695   -1942.6483   -2043.8873    4436.5455    237.45895     7104.591    5967.5866    13.167769    13.167769    66.167155 
   53400    1246.5518   -1941.7557   -2044.7175     4107.404    2589.5491    5838.4312    3894.2319    13.167769    13.167769     66.19314 
   53500     1282.111   -1940.8283   -2046.7272    2880.7155     670.9423    4723.7133     3247.491    13.167769    13.167769    66.220577 
   53600    1256.9242   -1939.8652   -2043.6836    4657.9697    5180.2794    4510.9643    4282.6654    13.167769    13.167769    66.249183 
   53700    1223.9628   -1938.9839   -2040.0799     5468.598    2453.9861     8417.387    5534.4208    13.167769    13.167769    66.279219 
   53800    1280.5501   -1938.0371    -2043.807    3546.6153    1812.7159    5820.3653    3006.7647    13.167769    13.167769    66.310931 
   53900    1218.1273   -1937.1017   -2037.7157    5315.2199    1021.1504    9260.6065    5663.9027    13.167769    13.167769     66.34341 
   54000    1259.5395   -1936.1978   -2040.2322    3914.7311    1540.9465    7077.5262    3125.7206    13.167769    13.167769    66.377091 
   54100    1250.5874   -1935.2854   -2038.5805    4985.3204    3271.5884    7073.9182    4610.4547    13.167769    13.167769    66.411954 
   54200    1238.2666    -1934.367   -2036.6444    4865.1011    2712.8475    7437.4647    4444.9911    13.167769    13.167769    66.448041 
   54300    1262.1231   -1933.4464   -2037.6943    3963.9236    1111.2565    7562.5361    3217.9781    13.167769    13.167769    66.485502 
   54400    1240.5809   -1932.5412   -2035.0097    5027.8219    2336.8464    7829.8917    4916.7276    13.167769    13.167769    66.524296 
   54500    1268.3187     -1931.62   -2036.3796    4058.4031   -614.75227    8025.8258    4764.1357    13.167769    13.167769    66.564279 
   54600    1253.5308   -1930.6963   -2034.2345     3337.139    709.70552    8183.2731    1118.4384    13.167769    13.167769     66.60538 
   54700    1241.1204   -1929.8041   -2032.3172    4321.4237    740.25311    5988.3666    6235.6512    13.167769    13.167769    66.647407 
[...]
  336300    1080.2311   -1978.7016   -2067.9257   -1147.8909   -147.45857   -3056.6906   -239.52364    13.143625    13.143625     65.91764 
  336400    1092.5197   -1978.7136   -2068.9527    133.92309    1842.2397    436.64148   -1877.1119    13.142934    13.142934    65.770698 
  336500    1055.2628   -1978.6993   -2065.8611    2871.0268    1741.2507    4802.9777     2068.852    13.142496    13.142496    65.620743 
  336600    1041.7036   -1978.7009   -2064.7427    2391.5034    2677.8558    2252.8506    2243.8039     13.14251     13.14251    65.627862 
  336700     1062.346   -1978.7319   -2066.4787    980.08812    962.66242    1325.2074    652.39451    13.142783    13.142783    65.773836 
  336800    995.41738   -1978.7178   -2060.9366    1204.8421    2751.3891    1786.2217   -923.08467    13.143097    13.143097    65.954234 
  336900    1074.8075   -1978.7084   -2067.4846   -1814.6542   -1332.9069   -2014.1574   -2096.8982    13.143355    13.143355    66.028083 
  337000    1042.1204   -1978.7155   -2064.7918   -260.59556   -2182.8818    932.10745    468.98769    13.143383    13.143383    65.952906 
  337100    1068.6452    -1978.711   -2066.9782    10.609415     870.3222   -1505.7162    667.22226    13.143356    13.143356    65.890796 
  337200    1058.9005   -1978.7101   -2066.1723    29.173453   -958.55964   -239.52661    1285.6066    13.143297    13.143297    65.872028 
  337300    1060.6694   -1978.7145   -2066.3228   -453.65909   -793.78893    78.499799   -645.68814    13.143152    13.143152      65.9183 
  337400    1106.3087   -1978.7156   -2070.0937   -1920.1373    -2568.788     47.28525   -3238.9092    13.142936    13.142936    65.934293 
  337500    1060.1955   -1978.7259   -2066.2951    617.35574    896.01828    1207.7915   -251.74259    13.142673    13.142673    65.810494 
  337600    1068.3849   -1978.7229   -2066.9686    2051.6209    2460.4152    2139.4892    1554.9582    13.142582    13.142582    65.673004 
  337700    1033.0242   -1978.7258   -2064.0507    2229.3257    133.64215    3199.6005    3354.7344    13.142735    13.142735    65.669929 
  337800    1039.3824   -1978.7907   -2064.6408    105.81082   -1382.2649    702.30168    997.39568    13.142965    13.142965    65.885332 
  337900     1085.246    -1978.768   -2068.4064   -3414.4192    -2483.769   -3687.1177    -4072.371    13.143006    13.143006    66.138154 
  338000     1083.468   -1978.7594   -2068.2509    -3423.625   -2138.2833   -2750.6162   -5381.9755    13.142715    13.142715    66.154924 
  338100    1069.1428   -1978.8095   -2067.1177   -1101.2676   -392.62263   -1126.9078   -1784.2725    13.142177    13.142177    65.932012 
  338200     1032.014   -1978.7944   -2064.0359    2564.3627    1545.7881    3289.3614    2857.9386    13.141637    13.141637    65.687494 
  338300    1121.1437   -1978.7818   -2071.3851    1509.1876    2505.3296     2199.663   -177.42986    13.141465    13.141465    65.574156 
  338400    1027.0404   -1978.7764   -2063.6071    4479.1812     5654.257    2410.9081    5372.3784    13.141762    13.141762     65.52289 
  338500    1100.7257   -1978.8117   -2069.7286    564.84564    579.96852     1610.348    -495.7796     13.14254     13.14254    65.660931 
  338600    1037.9161   -1978.7975   -2064.5264    635.15783    1545.6471    3018.9701   -2659.1438     13.14352     13.14352    65.816183 
  338700    1041.0053   -1978.7948    -2064.779    1007.3693     2098.339    309.90748    613.86137    13.144592    13.144592    65.826008 
  338800    1068.0344   -1978.7942   -2067.0109   -85.393428    596.42126   -226.92112   -625.68042    13.145583    13.145583    65.834143 
  338900    1060.1205   -1978.7956   -2066.3587   -292.02107   -1739.4003   -107.48524     970.8223     13.14639     13.14639    65.844286 
  339000    1087.5999   -1978.7949   -2068.6276   -1143.2312   -417.21083   -1436.3012   -1576.1817    13.147052    13.147052    65.850501 
  339100    1013.6708   -1978.8067   -2062.5331    2334.8611    4764.9631    846.39403    1393.2262    13.147557    13.147557    65.741114 
  339200     1068.718   -1978.8001   -2067.0733    1113.0844     1160.089    534.72459    1644.4396    13.148186    13.148186    65.659821 
  339300    1049.5209   -1978.8089   -2065.4964    1406.5676    288.52342   -203.08264    4134.2621    13.148972    13.148972    65.688153 
  339400     1061.049   -1978.8069   -2066.4466   -573.59013   -1299.1735    932.58222   -1354.1791    13.149774    13.149774    65.814237 
  339500    1070.8458   -1978.8056   -2067.2545   -1650.8511   -1246.8073   -3497.4657   -208.28042    13.150501    13.150501    65.848822 
  339600    1062.9503   -1978.8057   -2066.6024   -990.40589   -620.76594   -2203.0129   -147.43886    13.150969    13.150969     65.87435 
  339700    1049.3647   -1978.8032   -2065.4778   -460.88002   -37.892011   -327.84238   -1016.9057    13.151123    13.151123    65.889444 
  339800    1068.4316   -1978.8203   -2067.0697   -511.54635    813.42373    669.23848   -3017.3013    13.151105    13.151105     65.82246 
  339900    1029.6799   -1978.8305   -2063.8792    2476.0299    3916.2648     68.43104    3443.3939    13.151159    13.151159    65.621093 
  340000    1042.6189    -1978.814   -2064.9314    2633.3238    3907.5792    999.61845    2992.7737    13.151373    13.151373    65.573081 
  340100    1026.7663   -1978.8343   -2063.6424    1444.3563    50.271534     3100.714    1182.0833    13.151797    13.151797    65.676631 
  340200    1079.4636   -1978.8386   -2067.9994   -1139.9268   -2202.1602   -1743.9887    526.36844    13.152339    13.152339    65.825684 
  340300    1000.2443   -1978.8242   -2061.4416   -268.22645    1365.1933   -349.78425   -1820.0884    13.152657    13.152657    65.931892 
  340400    1051.0307   -1978.8284   -2065.6407   -1336.0148   -1943.5539    936.25789   -3000.7483    13.152802    13.152802     65.92172 
  340500    1081.9862   -1978.8605   -2068.2295    -184.8981   -523.45369   -397.68231    366.44171    13.152772    13.152772    65.746551 
  340600    1021.3554   -1978.8368   -2063.1979    2689.6984      1498.02    2867.0482    3704.0269    13.152716    13.152716    65.622679 
  340700    1094.3776   -1978.8457   -2069.2382   -44.498549   -668.55498    229.46919    305.59014    13.152878    13.152878    65.702309 
  340800     1076.871   -1978.8393   -2067.7859   -330.25326   -1138.2615   -457.44705     604.9488    13.153107    13.153107    65.748921 
  340900     1061.593   -1978.8404   -2066.5251    70.041933    107.63832    374.68959   -272.20211    13.153364    13.153364    65.738799 
  341000    1051.3368   -1978.8439   -2065.6814    582.77104    1773.6987   -2064.8249    2039.4393    13.153648    13.153648    65.673216 
  341100    1051.7483   -1978.8454   -2065.7169    661.61646    2553.0803   -705.50525    137.27431    13.153894    13.153894    65.686665 
  341200    1042.9445   -1978.8466    -2064.991    408.09097    1284.3726   -90.846013    30.746294    13.154121    13.154121    65.758655 
  341300    1018.7904    -1978.841   -2062.9902    236.95057    1142.2879    57.796432   -489.23267    13.154305    13.154305    65.788658 
  341400    1059.7079   -1978.8429   -2066.3719   -36.216405    114.51599    -79.36051    -143.8047    13.154415    13.154415    65.773034 
  341500    1012.7999   -1978.8411   -2062.4956    679.79896    1204.5857   -1163.3593    1998.1705    13.154489    13.154489    65.765256 
  341600    1079.4171   -1978.8431        -2068   -519.42243   -2533.3948    996.71214   -21.584611     13.15446     13.15446    65.798498 
  341700    1026.3655   -1978.8457   -2063.6206   -281.44028   -2622.1227    1700.8821    76.919691    13.154247    13.154247    65.857651 
  341800    1043.7308   -1978.8473   -2065.0566   -987.08711   -1219.3207    386.46082   -2128.4014    13.153918    13.153918    65.922591 
  341900    1033.9931   -1978.8535   -2064.2585   -746.10654   -972.48411    -655.1311   -610.70442    13.153531    13.153531    65.868967 
  342000    1099.1244   -1978.8748   -2069.6594   -629.43786   -233.76255    342.78635   -1997.3374    13.153083    13.153083    65.730854 
  342100    1084.7893   -1978.8762   -2068.4768    1683.1709    1275.9982    2959.9906    813.52396    13.152743    13.152743    65.534383 
  342200    1076.3142   -1978.8638   -2067.7644    2518.7761     2778.477    2003.3883     2774.463    13.152769    13.152769    65.487675 
  342300    1053.0606   -1978.9166   -2065.8965    1043.0122   -566.93936     578.6077    3117.3682    13.153063    13.153063    65.654065 
  342400    1049.8846   -1978.9307   -2065.6482   -2041.3116   -3066.7576   -2106.0428   -951.13433    13.153245    13.153245    65.951339 
  342500    984.39787   -1978.8938   -2060.2024   -1718.5579   -2502.2127   -2120.8299   -532.63121    13.153049    13.153049    66.105933 
  342600    1065.8216   -1978.9213   -2066.9552   -3155.6483   -3483.4885   -3347.1304    -2636.326    13.152455    13.152455    66.048448 
  342700    1015.4767   -1978.9208   -2062.7963    364.99152    1620.9371    -1524.509     998.5465     13.15153     13.15153    65.875245 
  342800    1069.6916   -1978.9127   -2067.2662   -118.60802    1533.6449   -650.46241   -1239.0065    13.150607    13.150607     65.78071 
  342900    1090.5578   -1978.9114   -2068.9885    147.11003    -88.55026    180.58026    349.30009    13.149787    13.149787    65.715227 
  343000    1107.1839   -1978.9116    -2070.362   -39.400073   -2399.9403     1658.013    623.72703    13.149142    13.149142    65.709751 
  343100     1081.263   -1978.9209   -2068.2303   -560.89442   -289.99021   -996.85189   -395.84117    13.148649    13.148649    65.797726 
  343200    1034.6771   -1978.9176    -2064.379   -89.754742     1299.214   -1484.8407   -83.637536    13.148194    13.148194    65.896724 
  343300    1065.2311   -1978.9142   -2066.8994   -1258.7099   -1307.1954    44.646626   -2513.5809    13.147722    13.147722    65.933367 
  343400    1054.9317   -1978.9296    -2066.064    162.87313   -467.45176    1369.6256   -413.55443    13.147273    13.147273    65.832208 
  343500    1063.1667   -1978.9231   -2066.7377    1397.2545   -151.22944    1630.9368    2712.0563    13.146913    13.146913    65.701962 
  343600    1088.3845   -1978.9224     -2068.82    356.21806    1634.3096    -1236.102    670.44659    13.146698    13.146698     65.69632 
  343700    1078.3832   -1978.9223   -2067.9938    87.052121    582.51584   -1588.2035    1266.8441    13.146678    13.146678    65.744488 
  343800    1090.9691   -1978.9258   -2069.0368   -1135.5652   -307.97702   -3116.7645    18.045852    13.146731    13.146731    65.828185 
  343900    1019.5258   -1978.9261   -2063.1361    299.01131    2043.8504   -1227.1255    80.309044    13.146658    13.146658    65.901112 
  344000    1051.7737   -1978.9307   -2065.8043   -91.343389    1061.6662     105.1301   -1440.8264     13.14663     13.14663    65.892735 
  344100    1103.3728   -1978.9341   -2070.0696   -764.53427    715.09223   -1685.8384   -1322.8566    13.146683    13.146683    65.785562 
  344200     1103.037   -1978.9309   -2070.0387   -93.552666    949.00231    23.874426   -1253.5347    13.146767    13.146767    65.711637 
  344300    1101.2642    -1978.927   -2069.8884   -63.699568     547.6384   -101.45149    -637.2856    13.147044    13.147044     65.69688 
  344400    1055.5733   -1978.9312   -2066.1187    661.26372    -1221.017    871.85845    2332.9497    13.147434    13.147434    65.721131 
  344500    1064.4484   -1978.9316   -2066.8521   -224.26147    21.463327    895.95031    -1590.198    13.147813    13.147813    65.818889 
  344600    1048.2682   -1978.9306   -2065.5146    495.63273    1149.4321   -537.46701    874.93315    13.148182    13.148182    65.827111 
  344700    1045.7734   -1978.9327   -2065.3107    313.45888    1030.2764    265.28338   -355.18316    13.148534    13.148534    65.808595 
  344800    1053.0509   -1978.9524   -2065.9315    905.92142    2803.0732    1616.6465   -1701.9555     13.14895     13.14895    65.716536 
  344900    1065.7369   -1978.9691    -2066.996    2506.9345    3699.4436    3584.2063    237.15363    13.149563    13.149563     65.53191 
  345000    1067.8615   -1978.9501   -2067.1525    3274.2683    3203.1521    4017.9915    2601.6612    13.150508    13.150508    65.426523 
  345100    1110.6446   -1978.9646   -2070.7008    1708.1735    3321.9263    998.94342    803.65061     13.15189     13.15189    65.469685 
  345200    1083.2838   -1978.9756   -2068.4519     1037.111    1979.1612    1300.8658   -168.69404    13.153541    13.153541    65.591809 
  345300    1039.8491   -1978.9721   -2064.8607    677.24089    813.83101     1468.933   -251.04136    13.155252    13.155252    65.707723 
  345400    1082.1405   -1978.9805   -2068.3623   -1721.3014   -1892.1768   -1655.8071   -1615.9203    13.156846    13.156846    65.808037 
  345500    1041.5704   -1978.9706   -2065.0014   -1476.4318   -940.51295   -233.84475   -3254.9377    13.158098    13.158098    65.861056 
  345600    1086.7734    -1978.983   -2068.7475   -1304.5728   -2676.3752    732.34757   -1969.6909    13.159088    13.159088     65.78065 
  345700    1048.6264   -1978.9935   -2065.6072    1274.7613    2754.7557    424.17406    645.35418    13.159898    13.159898    65.617684 
  345800    1076.9971   -1978.9825   -2067.9395    924.65887    645.73143    520.96442    1607.2807    13.160709    13.160709    65.514441 
  345900    1097.6666   -1978.9858   -2069.6501    475.05296    434.89586    1082.0955   -91.832521    13.161622    13.161622    65.528326 
  346000    1088.7033    -1978.988   -2068.9119   -327.21456    -237.4348   -1037.2514    293.04253    13.162601    13.162601    65.576234 
  346100    1054.6163   -1979.0213   -2066.1297   -484.55368   -280.15607   -966.41372   -207.09126     13.16343     13.16343    65.718882 
  346200    1092.7606   -1979.0135   -2069.2725   -3739.5154   -4094.5291   -1923.5249   -5200.4923    13.163982    13.163982    65.932136 
  346300    1034.2459   -1979.0277   -2064.4536   -1931.3658   -878.85427   -1604.7528   -3310.4903    13.164166    13.164166    65.882103 
  346400    1049.3499   -1979.0416    -2065.715    333.98762    370.92867   -1308.1366    1939.1708    13.164114    13.164114    65.647974 
  346500     1053.234   -1979.0298   -2066.0241    2121.7545    2815.1922    2325.3592    1224.7121    13.164012    13.164012    65.494321 
  346600    1078.0841     -1979.02   -2068.0668    1869.1345    910.76558    3387.0321    1309.6057    13.164204    13.164204    65.413829 
  346700    1089.8682   -1979.0281   -2069.0482    1171.8981   -55.281201    2161.9321    1409.0433    13.164714    13.164714     65.43267 
  346800    1074.0693   -1979.0441   -2067.7592    959.49153   -207.47577    1331.3582    1754.5922     13.16537     13.16537    65.547151 
  346900    1078.9701   -1979.0493   -2068.1692   -1592.2875   -742.87896   -1746.4143   -2287.5693    13.166006    13.166006    65.730925 
  347000    1063.7166   -1979.0338   -2066.8939   -1610.6389   -5005.1321    134.69006    38.525225    13.166475    13.166475    65.767757 
  347100    1048.1946   -1979.0518   -2065.6298   -523.98785    125.10989    306.41051   -2003.4839    13.166634    13.166634     65.67607 
  347200    1065.4735   -1979.0699    -2067.075    1450.6848    731.58448    2172.4542    1448.0159    13.166766    13.166766    65.466312 
  347300    1083.7119   -1979.0505   -2068.5621    1717.9507    960.43969    773.76555    3419.6468    13.167036    13.167036    65.394014 
  347400    1093.8543    -1979.069   -2069.4184    183.58699   -2061.5181    977.12304    1635.1561    13.167445    13.167445     65.51544 
  347500     1070.757   -1979.0724   -2067.5139   -1607.2953   -1926.5615   -485.35972   -2409.9646     13.16783     13.16783    65.679757 
  347600    1081.1314   -1979.0583   -2068.3568   -1757.6121   -2781.5617   -1777.4141   -713.86059    13.168096    13.168096    65.720573 
  347700    1078.2433    -1979.058   -2068.1179   -1232.0103    65.208017   -2323.6101   -1437.6289     13.16808     13.16808      65.7189 
  347800    1028.5343    -1979.072   -2064.0261    631.25767    387.22346    1147.9862    358.56337    13.167939    13.167939    65.636654 
  347900    1107.2909   -1979.0747   -2070.5338    714.33035   -349.15721    1009.5342    1482.6141    13.167887    13.167887    65.506225 
  348000    1080.9529   -1979.0649   -2068.3486    1239.7845     1107.595    1072.3167    1539.4419    13.167984    13.167984     65.45342 
  348100    1081.1803   -1979.0753   -2068.3778     489.4402   -730.42081    1932.2914    266.44999    13.168242    13.168242    65.519575 
  348200     1068.734   -1979.0776   -2067.3521    -438.0288   -476.51807   -950.41565    112.84734    13.168573    13.168573    65.641894 
  348300    1039.2217   -1979.0707   -2064.9075   -916.22397   -2844.0767    511.10796   -415.70321    13.168792    13.168792    65.715858 
  348400    1049.0331   -1979.0691   -2065.7164   -641.59357   -1923.2881   -934.92571    933.43313    13.168777    13.168777    65.722505 
  348500    1025.5931   -1979.0694   -2063.7805   -148.02881   -623.87381    -376.9042    556.69157    13.168545    13.168545    65.714745 
  348600    1044.8396   -1979.0697   -2065.3705   -842.52318   -2920.3392    71.666344    321.10333    13.168158    13.168158    65.711749 
  348700    1046.1713   -1979.0739   -2065.4847   -977.90238   -2329.8129   -2280.0672    1676.1729    13.167557    13.167557    65.712214 
  348800    1060.1148   -1979.0789   -2066.6414   -1098.9002   -630.98659   -1995.0235   -670.69062    13.166801    13.166801    65.707547 
  348900    1090.9085   -1979.0805   -2069.1866   -467.03893   -1281.7406   -343.24634    223.87015    13.166037    13.166037    65.619986 
  349000    1062.8958   -1979.0783   -2066.8705    701.62532     912.1886      1663.22   -470.53262    13.165372    13.165372    65.543025 
  349100    1050.6498   -1979.0785   -2065.8592    1941.4584    3468.5136   -535.79948    2891.6612    13.164931    13.164931    65.472027 
  349200    1095.3221   -1979.0905   -2069.5611    56.222495    473.86104   -1636.7679    1331.5743    13.164699    13.164699    65.533696 
  349300    1095.3911   -1979.1101   -2069.5863   -1500.7566   -3692.0734   -11.529678   -798.66666    13.164462    13.164462    65.701598 
  349400    998.77115   -1979.0892   -2061.5849    -462.9412   -952.44597    -49.57334   -386.80428    13.164142    13.164142    65.830054 
  349500    1073.4086   -1979.0894     -2067.75   -1900.3699   -1534.5815   -2804.6812   -1361.8472    13.163661    13.163661    65.855793 
  349600    1006.0156   -1979.0909    -2062.185   -442.77105   -421.36478     382.6507   -1289.5991    13.162956    13.162956    65.816442 
  349700    1079.8049   -1979.1371    -2068.326    -901.5939    114.40239   -1606.7256   -1212.4584    13.162215    13.162215    65.658185 
  349800    1053.2253   -1979.1262   -2066.1197    1853.2426    2376.2382    2541.9517    641.53783    13.161611    13.161611    65.456035 
  349900    1081.7367   -1979.1141   -2068.4625    3015.1401    3836.9734    3186.0785    2022.3683    13.161449    13.161449    65.314479 
  350000    1016.5282   -1979.1302   -2063.0926    4552.0845    2250.3286    5514.8814    5891.0437    13.161764    13.161764     65.33468 
Loop time of 452.971 on 1 procs for 200000 steps with 640 atoms

Pair  time (%) = 396.365 (87.5033)
Neigh time (%) = 37.5556 (8.29095)
Comm  time (%) = 8.07341 (1.78232)
Outpt time (%) = 0.245085 (0.054106)
Other time (%) = 10.7325 (2.36936)

Nlocal:    640 ave 640 max 640 min
Histogram: 1 0 0 0 0 0 0 0 0 0
Nghost:    2530 ave 2530 max 2530 min
Histogram: 1 0 0 0 0 0 0 0 0 0
Neighs:    21701 ave 21701 max 21701 min
Histogram: 1 0 0 0 0 0 0 0 0 0

Total # of neighbors = 21701
Ave neighs/atom = 33.9078
Neighbor list builds = 20000
Dangerous builds = 0
unfix		4
