LAMMPS (13 Jan 2014)
dimension       3
boundary        p p p
units           metal

atom_style	atomic
neighbor	0.3 bin
neigh_modify	every 10 delay 0 check no

# Number of steps for the equilibration steps
variable        eqsteps equal 50000

# Number of steps to run our NPH simulation
variable        simsteps equal 200000

# Our trial melting temperature
variable	T equal 1375.0
variable	T2 equal 2*${T}
variable	T2 equal 2*1375

# Some high temperature to melt the crystal
variable	Tmelt equal 2000.0

#System size
variable	nx equal 10
variable	ny equal 10
variable	nz equal 20
variable	nzhalf equal ${nz}*0.5
variable	nzhalf equal 20*0.5
variable	a equal 4.050
variable	length equal ${nz}*${a}
variable	length equal 20*${a}
variable	length equal 20*4.05

lattice		fcc ${a}
lattice		fcc 4.05
Lattice spacing in x,y,z = 4.05 4.05 4.05

region         box block 0 ${nx} 0 ${ny} 0 ${nz}
region         box block 0 10 0 ${ny} 0 ${nz}
region         box block 0 10 0 10 0 ${nz}
region         box block 0 10 0 10 0 20
create_box     1 box
Created orthogonal box = (0 0 0) to (40.5 40.5 81)
  1 by 1 by 1 MPI processor grid
create_atoms   1 box
Created 8000 atoms

mass		1 26.9815

pair_style	eam/alloy
pair_coeff	* * Al_potential.alloy Al

velocity	all create ${T2} 1337
velocity	all create 2750 1337

# Create a dump file. This can be visualized with
# e.g. OVITO (http://www.ovito.org/)
dump		id all atom 1000 atomsdump

# 1 fs timestep
timestep	0.001
thermo_style	custom step temp etotal pe press pxx pyy pzz lx ly lz

# output every 100th timestep
thermo		100

# Equilibration the whole system to the trial melting temperature
fix		1 all npt temp ${T} ${T} 1 iso 0 0 3 drag 1.0
fix		1 all npt temp 1375 ${T} 1 iso 0 0 3 drag 1.0
fix		1 all npt temp 1375 1375 1 iso 0 0 3 drag 1.0
run		${eqsteps}
run		50000
Memory usage per processor = 5.95314 Mbytes
Step Temp TotEng PotEng Press Pxx Pyy Pzz Lx Ly Lz 
       0         2750   -24333.884   -27177.252    18795.253    18587.519     18566.03     19232.21         40.5         40.5           81 
     100    1275.1705    -24365.09   -25683.555    48030.941    48432.125    48330.639    47330.058    40.592034    40.592034    81.184067 
     200    1276.2891   -24420.761   -25740.383    34498.657    35398.457    34448.607    33648.906    40.817553    40.817553    81.635106 
     300    1241.9285   -24453.294   -25737.388    24576.334     25334.35     24078.11    24316.543    41.010846    41.010846    82.021692 
     400    1241.5903   -24468.717   -25752.462    16601.695    16917.652    15890.756    16996.678    41.164202    41.164202    82.328404 
     500    1227.0795   -24474.586   -25743.328    10226.102    10726.916    9786.7394    10164.652    41.297821    41.297821    82.595642 
     600    1197.9742    -24474.13   -25712.777    6049.7141    6507.9599    6044.6061    5596.5762    41.406217    41.406217    82.812435 
     700    1204.2373   -24469.935   -25715.058    2236.4428    2242.9264    2320.8998    2145.5021    41.487358    41.487358    82.974717 
     800    1195.9145   -24464.184   -25700.702    3.2453953    124.39247     558.0388   -672.69508    41.543808    41.543808    83.087617 
     900    1183.8348   -24457.949   -25681.978   -1050.4662   -554.41596   -1953.5165   -643.46605    41.580571    41.580571    83.161141 
    1000    1176.4711   -24451.601   -25668.016   -1796.4939   -1385.2674   -2759.8489   -1244.3654    41.600855    41.600855    83.201711 
    1100    1181.7303   -24445.245   -25667.098   -1962.9294   -1339.1157   -2402.0406   -2147.6319    41.608058    41.608058    83.216116 
    1200    1194.1273   -24438.847   -25673.517   -2037.9989   -1276.3193   -2484.9925   -2352.6849    41.605713    41.605713    83.211426 
    1300    1170.6047   -24432.423   -25642.772   -757.75724   -575.81668    -840.0956   -857.35944    41.596631    41.596631    83.193261 
    1400    1202.3304   -24425.953   -25669.104   -796.44777   -555.84405   -475.90122    -1357.598    41.584375    41.584375     83.16875 
    1500    1209.9597   -24419.449   -25670.489   -172.15676   -62.633587   -807.07777    353.24106    41.572006    41.572006    83.144011 
    1600    1207.9062   -24412.888   -25661.805    592.63564    16.580643    1116.2657    645.06058    41.562124    41.562124    83.124247 
    1700    1217.0278   -24406.426   -25664.774    836.01847    1182.0658    542.92963    783.05998    41.556018    41.556018    83.112036 
    1800    1205.5947   -24399.985   -25646.512    1151.0527    1422.3609    1160.9875    869.80975    41.554948    41.554948    83.109897 
    1900     1215.718    -24393.58   -25650.574    1013.1597    1509.1768    439.92627    1090.3759    41.558538    41.558538    83.117076 
    2000    1230.6965   -24387.285   -25659.766     496.4181    1020.6616   -243.12232    711.71503    41.565585    41.565585     83.13117 
    2100    1235.2238   -24381.064   -25658.226    187.88153   -171.27317    695.23283    39.684922     41.57475     41.57475      83.1495 
    2200     1222.267    -24374.92   -25638.685    93.423628    513.39014   -852.40718    619.28792     41.58523     41.58523    83.170459 
    2300    1222.8472   -24368.708   -25633.073   -146.06788   -230.63293    84.730981    -292.3017    41.595606    41.595606    83.191211 
    2400     1219.469   -24362.463   -25623.335   -201.98753   -56.923122   -308.11913   -240.92035    41.604546    41.604546    83.209093 
    2500    1210.3516   -24356.316   -25607.761   -49.451819   -381.91097   -161.39938    394.95488    41.611417    41.611417    83.222834 
    2600    1237.1541   -24350.189   -25629.347   -726.31328   -457.58811   -1190.0351    -531.3166    41.616094    41.616094    83.232188 
    2700    1227.7065   -24344.087   -25613.476   -412.24135   -815.51322   -265.18229   -156.02853    41.618316    41.618316    83.236631 
    2800    1215.4042   -24338.033   -25594.702     -17.2781 -0.063389631    177.15537   -228.92628    41.618343    41.618343    83.236686 
    2900    1231.0997   -24332.062    -25604.96   -22.941972   -119.12947    274.37165    -224.0681    41.617052    41.617052    83.234103 
    3000    1225.9881   -24326.071   -25593.684    237.72042    807.53151   -443.96633    349.59609    41.615806    41.615806    83.231612 
    3100    1243.1521   -24320.115   -25605.474    86.597207   -188.08087    271.61777    176.25472    41.615324    41.615324    83.230649 
    3200     1244.203   -24314.238   -25600.684    252.79137    815.41257   -524.16476    467.12629    41.615584    41.615584    83.231168 
    3300    1230.9719   -24308.485   -25581.251    594.09795    531.09658    1093.8127    157.38458    41.616778    41.616778    83.233555 
    3400    1255.6016   -24302.683   -25600.915    4.1975745    48.115507    388.90117   -424.42395    41.619937    41.619937    83.239875 
    3500    1244.7777   -24296.994   -25584.035    291.73062    757.86411    645.40303    -528.0753    41.623788    41.623788    83.247576 
    3600    1245.5276   -24291.355   -25579.171    291.16981   -34.308335   -1.9302324    909.74799    41.628682    41.628682    83.257365 
    3700    1249.3315    -24285.72   -25577.469    91.744272    561.33989   -292.62073    6.5136592    41.634754    41.634754    83.269507 
    3800    1250.2799    -24280.03   -25572.759    49.341859    456.42342   -34.972889   -273.42496    41.641311    41.641311    83.282623 
    3900     1257.917   -24274.454    -25575.08   -313.33394    80.653749   -464.69486    -555.9607    41.647307    41.647307    83.294613 
    4000    1232.1839    -24268.98   -25542.999    252.16678    -562.2534    708.25887    610.49488    41.652118    41.652118    83.304236 
    4100    1253.6506   -24263.435    -25559.65   -198.39559   -636.78135    403.49729   -361.90271    41.656486    41.656486    83.312971 
    4200       1238.4   -24257.953   -25538.399    198.35624    -564.7052    899.71525    260.05868    41.659651    41.659651    83.319302 
    4300    1257.8697   -24252.407   -25552.984   -195.84229   -709.74993   -421.73083    543.95389    41.662588    41.662588    83.325176 
    4400    1265.4374   -24246.976   -25555.378    -537.1406   -1199.6527   -37.861749   -373.90733    41.664062    41.664062    83.328123 
    4500    1252.4373    -24241.69    -25536.65    237.54705    390.22146    328.59707   -6.1773621    41.664204    41.664204    83.328409 
    4600    1264.8942   -24236.375   -25544.215   -34.049935    122.45546   -440.99174    216.38647    41.664527    41.664527    83.329054 
    4700    1253.0724     -24231.1   -25526.717    513.56061   -349.23496    1372.3796    517.53717    41.664939    41.664939    83.329879 
    4800     1265.004   -24225.939   -25533.893    213.14532    801.87488   -385.79258    223.35366    41.665647    41.665647    83.331295 
    4900    1268.7267   -24220.844   -25532.646    282.63046    596.98849   -248.79606    499.69895    41.667189    41.667189    83.334379 
    5000    1264.7034   -24215.698    -25523.34    229.70069    15.087174    389.15902    284.85588    41.670009    41.670009    83.340018 
    5100    1259.6991   -24210.666   -25513.135    435.15427   -457.54666    948.28363    814.72585     41.67336     41.67336    83.346719 
    5200    1258.8695   -24205.591   -25507.201    413.46244    165.61604     910.0036    164.76767    41.677705    41.677705    83.355409 
    5300    1283.4273   -24200.566   -25527.568   -179.38401   -662.90504    256.10755   -131.35455    41.682641    41.682641    83.365282 
    5400     1266.848   -24195.609   -25505.469    229.05864    995.86979    -240.9729   -67.720963    41.687541    41.687541    83.375083 
    5500    1282.3276   -24190.616   -25516.481   -463.29987    -694.0346    218.81088   -914.67589    41.692559    41.692559    83.385119 
    5600    1289.5432   -24185.706   -25519.032   -675.23455   -840.88588   -437.41733   -747.40045    41.696024    41.696024    83.392049 
    5700    1271.2896   -24180.947   -25495.399   -12.934265    61.111832     238.2362   -338.15083    41.697672    41.697672    83.395344 
    5800    1282.9221   -24176.129   -25502.609       -245.6   -629.10536    449.63133   -557.32598    41.699128    41.699128    83.398255 
    5900    1280.2676   -24171.289   -25495.024   -48.349727     480.9587   -33.472061   -592.53582    41.700282    41.700282    83.400564 
    6000    1258.2507    -24166.53   -25467.501    633.56239    283.98908    1304.7045    311.99354    41.701045    41.701045     83.40209 
    6100    1280.7126   -24161.665    -25485.86    154.94729    554.24322    447.63083   -537.03217    41.702863    41.702863    83.405726 
    6200    1296.2697   -24156.951   -25497.231    -83.64628    774.23811    -60.61087   -964.56608    41.704535    41.704535    83.409071 
    6300    1284.6669   -24152.401   -25480.685     82.66334   -167.54311    -617.7721    1033.3052    41.706231    41.706231    83.412462 
    6400    1287.4512   -24147.988   -25479.151    300.51761     506.0804   -93.163458    488.63588    41.707724    41.707724    83.415448 
    6500    1278.8481   -24143.617   -25465.885    257.76127    861.27762     80.33459   -168.32842    41.710205    41.710205     83.42041 
    6600     1270.732   -24139.169   -25453.044    541.92693   -174.92402    1206.9897    593.71511    41.713776    41.713776    83.427552 
    6700    1300.5096   -24134.581   -25479.245   -80.869674   -849.35824    174.88793    431.86128    41.719039    41.719039    83.438079 
    6800    1282.5224   -24130.002   -25456.068    30.865705     1010.387   -286.07149   -631.71838    41.724498    41.724498    83.448997 
    6900    1291.0041   -24125.405   -25460.242   -110.36936   -1024.1066    317.26176     375.7368    41.730206    41.730206    83.460412 
    7000     1288.889   -24120.851     -25453.5   -325.45297   -128.31011   -365.30524   -482.74355    41.735506    41.735506    83.471012 
    7100    1279.2672   -24116.327   -25439.028   -158.82911   -199.82202   -61.681803   -214.98352    41.740118    41.740118    83.480235 
    7200    1281.4637    -24111.72   -25436.692   -83.818784     577.0929   -262.50121   -566.04804    41.744347    41.744347    83.488694 
    7300    1284.3707   -24107.106   -25435.084   -218.29486   -671.40308    119.53245   -103.01395    41.747468    41.747468    83.494937 
    7400    1276.1755   -24102.543   -25422.047    147.84806     64.60307    535.20082   -156.25971    41.749005    41.749005    83.498011 
    7500    1298.3678   -24098.058   -25440.508   -439.13765    240.47236     -1418.77   -139.11527    41.749344    41.749344    83.498688 
    7600    1279.8784   -24093.598   -25416.931    130.33823    -291.0281     542.4032    139.63958    41.749381    41.749381    83.498763 
    7700    1283.4371   -24089.001   -25416.013    281.00287     229.5157    528.36227    85.130633    41.750017    41.750017    83.500034 
    7800    1293.6233   -24084.459   -25422.003    328.04185     411.0619    378.09822    194.96542    41.751139    41.751139    83.502279 
    7900    1303.5752   -24080.078   -25427.912    60.100324   -145.93739    30.500615    295.73774    41.752801    41.752801    83.505603 
    8000    1295.2795   -24075.854   -25415.111    241.31539   -326.33515     656.3927    393.88862    41.754922    41.754922    83.509844 
    8100     1305.979   -24071.678   -25421.998   -61.348054    502.20152   -1147.1466    460.90089    41.757472    41.757472    83.514943 
    8200    1296.4579   -24067.656   -25408.131    331.07245   -711.39279    723.24852    981.36162    41.759201    41.759201    83.518402 
    8300    1290.1842   -24063.604   -25397.592    526.78517    117.77984    924.85763    537.71804    41.761914    41.761914    83.523827 
    8400    1289.4083   -24059.537   -25392.723    474.03899    857.06048    486.07886    78.977636    41.765397    41.765397    83.530794 
    8500    1313.3403   -24055.524   -25413.455   -350.42049   -481.77825   -689.30686    119.82365    41.769165    41.769165    83.538329 
    8600    1298.2705   -24051.437   -25393.786    234.84335   -289.15155    188.51905    805.16254    41.773206    41.773206    83.546413 
    8700    1304.6334   -24047.377   -25396.306   -32.703145    339.13013    -114.9524   -322.28716    41.777265    41.777265     83.55453 
    8800    1303.3514   -24043.354   -25390.957   -34.514019    99.564253   -920.48043    717.37412    41.781145    41.781145     83.56229 
    8900    1282.8674   -24039.313   -25365.736    635.32938    940.68701    402.22712      563.074    41.784731    41.784731    83.569462 
    9000     1289.024   -24035.117   -25367.905    95.962633    333.68888    396.53127   -442.33225    41.789273    41.789273    83.578547 
    9100     1304.487   -24030.801   -25379.578   -280.26057    77.462948   -625.26442   -292.98025    41.794177    41.794177    83.588353 
    9200    1295.1839   -24026.474   -25365.632   -150.46815   -149.71916    -404.6999     103.0146    41.798471    41.798471    83.596943 
    9300     1283.761   -24022.117   -25349.464    38.059855    341.71568    309.25273   -536.78885    41.802289    41.802289    83.604578 
    9400    1276.8239   -24017.693   -25337.868   -101.93648    680.23945    223.04415    -1209.093    41.806285    41.806285     83.61257 
    9500    1290.3448    -24013.16   -25347.314   -15.926823    -939.9605    608.93842    283.24162    41.810135    41.810135    83.620271 
    9600    1284.5471   -24008.715   -25336.875    141.85074    536.45054    15.408841   -126.30717    41.813341    41.813341    83.626681 
    9700    1285.4733    -24004.31   -25333.428    210.31848    192.27936    33.719197    404.95687    41.816579    41.816579    83.633157 
    9800    1276.6874   -23999.876    -25319.91    144.20815   -7.6371179     323.9381    116.32348      41.8202      41.8202      83.6404 
    9900    1277.6462   -23995.317   -25316.342    125.10817   -238.58178    604.69137    9.2149247    41.824115    41.824115    83.648231 
   10000    1276.3308   -23990.739   -25310.404   -183.41641     278.4604   -975.37688    146.66725    41.827942    41.827942    83.655883 
   10100    1277.7344   -23986.045   -25307.161    45.739019   -859.75575    229.05376    767.91904    41.832154    41.832154    83.664307 
   10200    1292.5694   -23981.242   -25317.697   -416.29286   -654.46557   -228.92891   -365.48411     41.83719     41.83719    83.674381 
   10300    1261.9094   -23976.522   -25281.276    381.67732    1092.3499    5.3817041    47.300347    41.841654    41.841654    83.683307 
   10400    1272.2124   -23971.702   -25287.108    109.91419    32.639064   -14.781682    311.88518    41.846557    41.846557    83.693114 
   10500    1270.8474     -23966.9   -25280.895   -156.74674     -719.687    147.83997    101.60683    41.851222    41.851222    83.702443 
   10600    1272.4462   -23962.006   -25277.654   -232.34213   -674.14371    506.97528   -529.85795    41.855581    41.855581    83.711162 
   10700    1260.7061   -23957.066   -25260.575    381.88162    1409.0011   -206.28043   -57.075832    41.859811    41.859811    83.719622 
   10800    1257.4627    -23952.06   -25252.216    271.08032   -167.72487    1135.9827   -155.01684    41.865042    41.865042    83.730085 
   10900     1256.493   -23947.007   -25246.161    253.92763   -120.71142     724.9346     157.5597    41.870596    41.870596    83.741192 
   11000    1254.0464   -23941.903   -25238.526    438.72026   -44.578245   -507.65436    1868.3934    41.876439    41.876439    83.752879 
   11100    1227.2199    -23936.71   -25205.596    876.95475   -580.87517    447.79225    2763.9472    41.883666    41.883666    83.767333 
   11200    1226.7273   -23931.271   -25199.648     320.7373   -448.47426    855.62688    555.05926    41.892489    41.892489    83.784977 
   11300     1236.304   -23925.767   -25204.046    104.55953    72.311747   -51.714576    293.08141    41.901384    41.901384    83.802768 
   11400    1225.2451   -23920.106    -25186.95    71.161829    1249.5609   -940.40096   -95.674479    41.910361    41.910361    83.820722 
   11500    1226.8677   -23914.396   -25182.918   -366.93949   -1036.8513   -268.40579    204.43862    41.918767    41.918767    83.837533 
   11600    1219.6915   -23908.511   -25169.614    52.883515    30.446327    174.52472   -46.320506    41.926314    41.926314    83.852628 
   11700    1205.4448    -23902.61   -25148.982    286.40134    422.71161  -0.84958217    437.34198    41.933244    41.933244    83.866488 
   11800    1210.6965   -23896.581   -25148.383    22.553202   -504.10634    589.08816   -17.322211    41.940211    41.940211    83.880422 
   11900    1198.9891   -23890.484   -25130.181    177.66328    73.592793    -288.1506    747.54764    41.947027    41.947027    83.894054 
   12000    1195.3699   -23884.295    -25120.25    119.63339   -906.15842    725.21681    539.84177    41.953292    41.953292    83.906585 
   12100     1202.106   -23877.999   -25120.918      11.4337    302.67776   -142.27152   -126.10514    41.959464    41.959464    83.918927 
   12200    1188.9987   -23871.564   -25100.932    323.54629    416.24865    -366.0719    920.46211    41.966386    41.966386    83.932773 
   12300    1181.0025   -23865.048   -25086.148    613.65769    1213.4827    957.43155    -329.9412    41.973615    41.973615     83.94723 
   12400    1186.1219   -23858.502   -25084.895    235.22041   -359.17191    695.86218    368.97096    41.981932    41.981932    83.963863 
   12500    1185.9402   -23851.849   -25078.054    38.687186    52.699588   -406.35675    469.71872    41.990364    41.990364    83.980727 
   12600    1177.0814    -23845.19   -25062.236    45.766254     128.6888   -260.50393    269.11389    41.997871    41.997871    83.995741 
   12700    1183.3219   -23838.458   -25061.956   -364.99996   -346.40883   -146.61312   -601.97792    42.004567    42.004567    84.009135 
   12800    1176.3573   -23831.732   -25048.029    162.68174    1364.5162    -1673.973    797.50195    42.009842    42.009842    84.019684 
   12900     1170.034   -23824.939   -25034.698    158.10436    990.04049   -637.43557    121.70815    42.015109    42.015109    84.030218 
   13000    1173.5533   -23818.028   -25031.425    132.94454    398.02209    55.540313   -54.728778    42.020298    42.020298    84.040596 
   13100    1185.3843   -23811.085   -25036.715   -173.39848   -692.86016   -1004.9951    1177.6598    42.025392    42.025392    84.050784 
   13200    1181.2845   -23804.178   -25025.569   -47.076467   -488.29569    272.98149      74.0848    42.030093    42.030093    84.060187 
   13300    1186.8932   -23797.318   -25024.508    -22.29882   -168.21265    1042.5631   -941.24691    42.033764    42.033764    84.067527 
   13400    1177.0737   -23790.517   -25007.554    373.37051   -6.9883684    977.71041    149.38948     42.03658     42.03658     84.07316 
   13500    1197.6575   -23783.719   -25022.039   -435.16401    821.90175   -637.20562   -1490.1882    42.039726    42.039726    84.079452 
   13600    1185.5251   -23776.968   -25002.744    141.19058    589.61719    457.91413   -623.95957     42.04257     42.04257     84.08514 
   13700    1193.8458   -23770.163   -25004.543   -139.46811   -387.20307   -735.16551    703.96426    42.045911    42.045911    84.091822 
   13800    1199.4104   -23763.443   -25003.576    243.69059    522.64524    1286.8288   -1078.4022     42.04851     42.04851     84.09702 
   13900    1186.7546   -23756.772   -24983.819    563.95374   -121.77121    1106.3215    707.31091    42.052103    42.052103    84.104206 
   14000    1203.4639   -23750.043   -24994.367    191.11869    252.54931   -417.45793    738.26468     42.05735     42.05735      84.1147 
   14100    1201.9413   -23743.399   -24986.148    144.87107    42.447685    1084.6245   -692.45894    42.063428    42.063428    84.126857 
   14200    1202.9975   -23736.821   -24980.662   -122.63205    430.95289   -472.26094   -326.58809    42.069249    42.069249    84.138499 
   14300    1213.6042   -23730.364   -24985.172   -313.06319   -137.96803   -1253.9626    452.74105    42.073498    42.073498    84.146996 
   14400    1210.3661   -23723.926   -24975.386   -105.15891     1.131454    548.03044   -864.63862    42.076143    42.076143    84.152287 
   14500    1200.2611   -23717.541   -24958.553      106.798    668.64435    974.79773   -1323.0481    42.077733    42.077733    84.155466 
   14600    1227.6194   -23711.133   -24980.432   -547.55312   -117.84338   -371.50226   -1153.3137     42.07893     42.07893    84.157861 
   14700    1219.5052   -23704.778   -24965.688   -54.532045    -295.9297    119.75961    12.573958    42.078949    42.078949    84.157898 
   14800    1219.5723   -23698.514   -24959.493    148.45602     173.9952   -596.58477    867.95764    42.078458    42.078458    84.156916 
   14900    1223.3836   -23692.413   -24957.333    464.46502   -63.869547    786.62241    670.64221    42.077962    42.077962    84.155924 
   15000    1230.4582   -23686.329   -24958.563     434.4476    166.20687    1044.9185    92.217467    42.079266    42.079266    84.158532 
   15100    1228.9959   -23680.239   -24950.962    635.45215   -487.58551    1256.4551    1137.4869    42.082616    42.082616    84.165232 
   15200    1242.7341   -23674.208   -24959.135    266.79183   -608.15047    916.00499    492.52097    42.087995    42.087995    84.175989 
   15300    1236.4151   -23668.316    -24946.71   -24.418304    63.158744    553.04231   -689.45596    42.094277    42.094277    84.188553 
   15400    1239.1053   -23662.434    -24943.61    99.300732    181.17893   -53.007891    169.73116    42.100275    42.100275     84.20055 
   15500    1240.9492   -23656.663   -24939.745   -270.66038   -581.23699    461.05564   -691.79977    42.106025    42.106025    84.212049 
   15600      1232.52   -23650.905   -24925.271    72.396111   -157.58266    453.28088   -78.509885    42.111127    42.111127    84.222254 
   15700    1245.3596    -23645.15   -24932.792   -275.72709   -1440.5482    884.71197   -271.34503    42.115506    42.115506    84.231011 
   15800    1226.3165   -23639.385   -24907.337    382.55355    883.84045   -179.96484    443.78504    42.119368    42.119368    84.238736 
   15900    1256.1246   -23633.587    -24932.36   -282.68382    414.69131   -244.68046   -1018.0623    42.123859    42.123859    84.247717 
   16000    1232.7701   -23627.891   -24902.516    30.953817    -119.8592    427.46601   -214.74536    42.128209    42.128209    84.256418 
   16100    1250.7292     -23622.2   -24915.394   -258.55774   -332.76959    203.15032   -646.05395    42.131914    42.131914    84.263828 
   16200    1248.4514   -23616.614   -24907.453    -187.5133   -436.78424    319.94635     -445.702    42.134073    42.134073    84.268146 
   16300    1260.4652   -23611.189    -24914.45   -9.9830751    1334.5112   -1105.4114   -259.04909     42.13487     42.13487    84.269739 
   16400    1239.7863   -23605.831   -24887.711    325.19018    -232.0383     698.5526    509.05625    42.135681    42.135681    84.271362 
   16500    1246.8395   -23600.404   -24889.576    467.85338    1130.0567    914.40939   -640.90595    42.137212    42.137212    84.274425 
   16600    1265.0282   -23594.925   -24902.904    131.12783    695.55739    -365.9706    63.796706    42.139919    42.139919    84.279839 
   16700    1247.8929   -23589.584   -24879.845    573.54317    437.17307    1027.9254    255.53098    42.143214    42.143214    84.286429 
   16800    1271.9285   -23584.305   -24899.418   -30.931615   -59.117302    366.45786   -400.13541    42.147938    42.147938    84.295876 
   16900    1270.5002   -23579.059   -24892.695    -167.5955   -416.95749      587.404     -673.233    42.153293    42.153293    84.306585 
   17000     1271.473   -23573.881   -24888.523   -315.19953    130.41539   -766.34699   -309.66698    42.157884    42.157884    84.315768 
   17100    1270.5653   -23568.909   -24882.612   -44.154633   -485.33291    151.73636    201.13265    42.160765    42.160765     84.32153 
   17200    1278.4179   -23563.939   -24885.762   -651.79472   -1239.9115   -887.65342    172.18071    42.163028    42.163028    84.326056 
   17300    1275.8303   -23558.997   -24878.144    -293.9071   -1290.4627    21.002683    387.73876    42.163649    42.163649    84.327298 
   17400     1276.954   -23554.109   -24874.418    3.7855443   -648.42999    1033.0421    -373.2555    42.163374    42.163374    84.326749 
   17500    1300.3005   -23549.282    -24893.73   -397.57937   -577.63649   -60.788231   -554.31339    42.163245    42.163245     84.32649 
   17600    1283.5761   -23544.512   -24871.668   -16.060778   -447.37913     771.5437    -372.3469    42.163683    42.163683    84.327367 
   17700    1286.5807    -23539.78   -24870.042    41.909955    594.13914    814.15582   -1282.5651    42.165131    42.165131    84.330263 
   17800    1287.9785   -23535.097   -24866.805    223.40506    863.10363    348.14319   -541.03164    42.167148    42.167148    84.334296 
   17900    1280.0669   -23530.472   -24853.999    414.02501    1270.8823    56.581147   -85.388399    42.170355    42.170355    84.340711 
   18000    1280.2141   -23525.854   -24849.534      333.699    833.42222    921.20225   -753.52748    42.175221    42.175221    84.350442 
   18100    1275.8939   -23521.313   -24840.526     425.2592    1114.7996    388.25905   -227.28105    42.180393    42.180393    84.360785 
   18200    1265.6083     -23516.8   -24825.378    522.88604    182.74625    223.75501    1162.1568    42.185691    42.185691    84.371382 
   18300     1285.389   -23512.236   -24841.266    -444.4144   -1142.5539    36.886628   -227.57595    42.191193    42.191193    84.382386 
   18400    1286.4054   -23507.706   -24837.787   -50.120479   -472.86249   -359.62715     682.1282    42.194989    42.194989    84.389979 
   18500    1289.8447   -23503.275   -24836.912    247.56556   -128.46696    893.21617   -22.052514    42.198404    42.198404    84.396807 
   18600    1299.6576   -23498.816   -24842.599   -403.68497   -48.026309   -685.80823   -477.22038    42.201993    42.201993    84.403985 
   18700    1292.0477   -23494.448   -24830.363   -122.13539    626.66605   -720.88497   -272.18726    42.203564    42.203564    84.407129 
   18800    1288.5371   -23490.179   -24822.464    321.98921   -20.131999    323.28022     662.8194    42.204037    42.204037    84.408075 
   18900      1303.44   -23485.886    -24833.58   -512.56114   -1356.7648   -345.99784    165.07923    42.204812    42.204812    84.409624 
   19000    1308.1487   -23481.793   -24834.356   -54.924261    470.49306   -347.51599   -287.74985    42.203517    42.203517    84.407035 
   19100    1293.3348   -23477.863   -24815.109    486.02415    1314.3694   -36.550688    180.25375    42.201864    42.201864    84.403727 
   19200    1318.4828   -23473.867   -24837.115   -324.51633   -117.90795   -530.28869   -325.35234    42.201429    42.201429    84.402859 
   19300    1314.9087   -23469.961   -24829.513    365.13187   -256.62081    765.00285    587.01356    42.200955    42.200955    84.401909 
   19400    1301.7707   -23466.102    -24812.07    571.21215    704.83439    125.08794    883.71411    42.202457    42.202457    84.404913 
   19500    1308.6134    -23462.29   -24815.333     296.6768   -90.491347    97.297568    883.22418    42.205834    42.205834    84.411669 
   19600    1318.9747   -23458.524   -24822.281    391.36575   -22.734746    1432.5069   -235.67491    42.210297    42.210297    84.420594 
   19700    1307.4931   -23454.826   -24806.711    105.15769   -567.62263    426.51853    456.57715    42.215639    42.215639    84.431278 
   19800    1301.7433   -23451.244   -24797.184    416.76192    577.13785   -240.51487    913.66279    42.220644    42.220644    84.441287 
   19900    1313.7911    -23447.69   -24806.086   -357.49138   -1315.9783    -38.35445    281.85861    42.225401    42.225401    84.450802 
   20000    1306.6654   -23444.159   -24795.188    63.095868    9.4177079   -609.32745    789.19735    42.228495    42.228495     84.45699 
   20100    1300.4488   -23440.682   -24785.283    539.78246    171.94972    1098.9348    348.46289    42.230455    42.230455    84.460911 
   20200    1323.4101   -23437.159   -24805.502   -245.47261     61.75783    -271.4613   -526.71436    42.232963    42.232963    84.465926 
   20300    1310.1336   -23433.597   -24788.212   -185.42774    48.672426   -1032.7596    427.80395    42.235111    42.235111    84.470222 
   20400    1318.4232   -23430.094    -24793.28   -93.457838   -585.56867    379.46062   -74.265462    42.235563    42.235563    84.471125 
   20500    1316.7748    -23426.83   -24788.312    151.63272    938.23598    378.44267   -861.78048     42.23412     42.23412     84.46824 
   20600    1333.6887   -23423.554   -24802.524   -336.47755   -137.90759    208.34238   -1079.8674    42.233278    42.233278    84.466557 
   20700    1321.3434   -23420.353   -24786.558    302.56931   -14.733317    1472.7291    -550.2879    42.232404    42.232404    84.464809 
   20800     1337.852   -23417.171   -24800.445     31.11195   -762.60376    144.05563    711.88398    42.232086    42.232086    84.464171 
   20900    1334.4301    -23414.14   -24793.877    39.951675    244.76049    132.46954   -257.37501    42.232345    42.232345    84.464691 
   21000    1338.8408    -23411.16   -24795.457    37.025302   -170.99635    -280.3141    562.38635    42.233622    42.233622    84.467244 
   21100    1321.2006    -23408.27   -24774.328    277.35608     641.5044   -173.05806    363.62189    42.235465    42.235465     84.47093 
   21200    1336.7475   -23405.314   -24787.447    94.826919   -563.21322    136.10012    711.59385    42.238401    42.238401    84.476802 
   21300    1332.1391   -23402.281   -24779.649    59.449952   -448.73129    692.25651   -65.175365    42.242982    42.242982    84.485965 
   21400     1341.956   -23399.204   -24786.722   -86.527098    208.18377    457.27402   -925.03909     42.24815     42.24815    84.496299 
   21500    1335.0931   -23396.189   -24776.611   -55.074884    338.45785    98.131135   -601.81363    42.253553    42.253553    84.507107 
   21600    1325.5966   -23393.218   -24763.821    107.49605   -281.37476    232.80049    371.06242    42.258935    42.258935     84.51787 
   21700    1333.3687   -23390.252   -24768.891   -313.27492    -212.9937   -503.43781   -223.39324    42.263889    42.263889    84.527778 
   21800    1319.4844   -23387.372   -24751.656   -46.124324    -90.37507    295.46449   -343.46239    42.266838    42.266838    84.533677 
   21900    1343.0499   -23384.582   -24773.231   -567.88742    214.93426   -859.31787   -1059.2787    42.267588    42.267588    84.535175 
   22000    1327.8438   -23381.947   -24754.874   -62.844023    452.26007     -151.053   -489.73914    42.265822    42.265822    84.531643 
   22100    1348.2223   -23379.265   -24773.262   -504.65497   -390.12397   -433.05304    -690.7879     42.26317     42.26317     84.52634 
   22200    1356.5968   -23376.657   -24779.313   -240.72126    221.52682   -1287.3839    343.69328    42.259497    42.259497    84.518994 
   22300    1335.1242   -23374.133   -24754.587    449.24846    747.82799    1065.4479   -465.53047    42.256386    42.256386    84.512773 
   22400    1345.9275   -23371.538   -24763.162    379.48447    1030.6466    672.94594   -565.13913      42.2555      42.2555       84.511 
   22500    1356.1553   -23369.028   -24771.228    427.68307    279.68414     305.6416    697.72348    42.256661    42.256661    84.513322 
   22600    1357.2916   -23366.643   -24770.017   -122.69682    449.06025    207.69992   -1024.8506    42.259317    42.259317    84.518634 
   22700    1339.1843   -23364.393   -24749.046    383.30306    557.24729    569.84868    22.813204    42.262328    42.262328    84.524655 
   22800    1361.3242   -23362.129   -24769.673   -265.27677   -722.89886    498.81229   -571.74374    42.266095    42.266095    84.532191 
   22900    1351.9444    -23359.98   -24757.825    304.84123    1030.8914    52.766555   -169.13428    42.269365    42.269365     84.53873 
   23000    1343.9203   -23357.845   -24747.394    296.88608    204.36574    375.85079     310.4417    42.273208    42.273208    84.546417 
   23100    1347.8409   -23355.746   -24749.349    482.86378    49.681477    620.71322    778.19663    42.277349    42.277349    84.554698 
   23200      1357.87   -23353.623   -24757.595   -68.190239   -1304.8192     675.3253    424.92316    42.282421    42.282421    84.564842 
   23300    1367.6525   -23351.524   -24765.611   -1068.7739   -1419.9034   -1336.0437   -450.37462    42.286972    42.286972    84.573944 
   23400     1356.664   -23349.456   -24752.181   -262.98453   -532.96573    511.57596   -767.56381    42.288972    42.288972    84.577943 
   23500    1352.9788   -23347.381   -24746.296   -177.91952    67.685507   -233.41746   -368.02662    42.289809    42.289809    84.579618 
   23600     1346.062   -23345.333   -24737.096   -52.788307    139.33382   -422.10505    124.40631    42.289438    42.289438    84.578876 
   23700    1348.9588   -23343.167   -24737.925   -66.683082    -688.4061    250.97003    237.38682    42.289045    42.289045     84.57809 
   23800    1349.4758   -23341.004   -24736.297    90.056958    370.81738    156.74993   -257.39644    42.288497    42.288497    84.576995 
   23900    1361.0397   -23339.093   -24746.343   -253.37625    301.95593   -955.86681   -106.21787    42.287003    42.287003    84.574006 
   24000    1363.9718    -23337.28   -24747.561   -42.522369    27.245062    133.81185   -288.62402    42.284868    42.284868    84.569736 
   24100    1349.7685   -23335.497   -24731.093    524.41888    1143.3417   -126.80129    556.71623      42.2835      42.2835    84.566999 
   24200    1358.0923   -23333.793   -24737.995    338.34435    -47.86866   -406.55854    1469.4603    42.283392    42.283392    84.566785 
   24300    1363.8897   -23332.123   -24742.319     87.29806    53.229476    97.236937    111.42777     42.28446     42.28446    84.568919 
   24400    1372.8967   -23330.551    -24750.06    -300.0129   -974.43363    146.53446   -72.139529    42.286087    42.286087    84.572175 
   24500    1379.2733   -23329.054   -24755.156   -317.36266    16.439187    115.17125   -1083.6984    42.287886    42.287886    84.575772 
   24600    1351.3287   -23327.622   -24724.831    347.08831    778.69297    72.348725    190.22324    42.289833    42.289833    84.579666 
   24700    1351.4695   -23326.135   -24723.489    312.05778   -523.85209     438.0249    1022.0005    42.292569    42.292569    84.585138 
   24800    1366.9426   -23324.602   -24737.955    -194.7231    401.30709    -301.7403   -683.73609    42.295564    42.295564    84.591127 
   24900    1387.8491   -23323.132   -24758.102   -828.22363   -470.56675   -666.28869   -1347.8154    42.297329    42.297329    84.594658 
   25000    1374.8363   -23321.915    -24743.43    -482.5033   -759.15806    1225.5194   -1913.8713     42.29683     42.29683    84.593659 
   25100    1376.3134   -23320.873   -24743.915   -425.19181   -1675.2391    85.931108    313.73253    42.294522    42.294522    84.589044 
   25200    1366.6061   -23319.878   -24732.883   -231.11072   -1086.4881    341.72233    51.433611    42.291345    42.291345    84.582689 
   25300    1364.1342    -23318.83   -24729.279    191.12595    628.80065   -123.05834    67.635529     42.28851     42.28851    84.577019 
   25400    1376.0469   -23317.754    -24740.52   -115.90747    146.36347    446.93571   -941.02159    42.286645    42.286645    84.573289 
   25500    1365.9161   -23316.733   -24729.025    654.90795    590.97745    638.95468    734.79171    42.285485    42.285485    84.570969 
   25600    1372.4705   -23315.748   -24734.817    150.19905    623.09204   -461.91947    289.42458    42.286344    42.286344    84.572688 
   25700    1365.2178   -23314.782   -24726.352    850.16883    468.94662    1875.5344    206.02552    42.288059    42.288059    84.576119 
   25800    1361.2035   -23313.938   -24721.357    404.70038    770.72671    947.63665   -504.26221    42.291221    42.291221    84.582442 
   25900    1377.4181   -23313.092   -24737.276   -305.98465   -712.45909    36.889189   -242.38406    42.295552    42.295552    84.591104 
   26000    1365.2847   -23312.195   -24723.834   -22.184295    79.453329     545.2776   -691.28382    42.299872    42.299872    84.599744 
   26100    1364.0762   -23311.335   -24721.724    176.59152    711.79045    445.30794   -627.32383    42.303454    42.303454    84.606908 
   26200    1376.0715   -23310.394   -24733.185   -414.77099    666.43448   -1096.3208   -814.42668    42.307039    42.307039    84.614078 
   26300    1366.2826   -23309.456   -24722.127   -445.36784   -1023.8233   -641.25058    328.97034    42.309519    42.309519    84.619038 
   26400    1373.0153    -23308.49   -24728.122   -550.39432   -212.19796   -498.44124   -940.54376    42.310298    42.310298    84.620596 
   26500    1378.9939   -23307.604   -24733.417   -169.87763   -756.62029    124.28717    122.70025    42.308602    42.308602    84.617205 
   26600     1357.248   -23306.674   -24710.003     339.0031    492.05439    821.03209   -296.07718    42.306578    42.306578    84.613157 
   26700    1371.0885   -23305.733   -24723.373   -202.70654    1687.0202   -2109.6284   -185.51135    42.305216    42.305216    84.610432 
   26800    1372.5676   -23304.739   -24723.908   -205.75818    -419.7025   -95.267689   -102.30434    42.303814    42.303814    84.607628 
   26900     1366.123   -23303.805   -24716.311    403.05607    1795.0719    171.36474   -757.26844    42.302087    42.302087    84.604173 
   27000    1363.8853    -23302.93   -24713.122    520.51688    1069.9092    487.01373    4.6277253     42.30118     42.30118    84.602361 
   27100    1365.5235   -23302.214     -24714.1    377.22926    489.96411    366.63369    275.08998    42.301341    42.301341    84.602683 
   27200    1366.9442   -23301.605   -24714.959    563.05195    224.74066    405.24962    1059.1656    42.302333    42.302333    84.604666 
   27300    1373.9807   -23301.176   -24721.806   -281.13339   -1323.7859    290.80295    189.58279    42.303891    42.303891    84.607783 
   27400    1376.5889   -23300.874   -24724.201   -19.926678    710.84656   -557.87917   -212.74743     42.30454     42.30454     84.60908 
   27500    1376.9978   -23300.746   -24724.495   -34.384914   -123.19084    392.55341   -372.51732    42.304993    42.304993    84.609986 
   27600    1353.1765   -23300.557   -24699.677    535.39923    1688.3078    678.95296   -761.06313    42.305272    42.305272    84.610543 
   27700     1381.376   -23300.265   -24728.541   -151.75725    486.33936   -1538.6737     597.0626    42.306113    42.306113    84.612225 
   27800    1376.3654   -23300.024    -24723.12   -140.95959    381.45647    -68.71019   -735.62506    42.306534    42.306534    84.613067 
   27900    1362.7286   -23299.867   -24708.863    47.428578    438.75564    219.07143   -515.54134    42.306362    42.306362    84.612725 
   28000    1375.3881   -23299.704   -24721.789   -377.78859   -725.92108     408.2713     -815.716    42.305496    42.305496    84.610993 
   28100    1387.7996   -23299.531   -24734.449   -560.18937   -715.07172   -570.88864   -394.60777    42.303763    42.303763    84.607526 
   28200    1381.4492   -23299.498    -24727.85   -347.84872   -829.62766    194.84118   -408.75967     42.30102     42.30102    84.602041 
   28300     1367.253   -23299.389   -24713.063    354.75102    371.91855     359.8527    332.48182    42.298488    42.298488    84.596976 
   28400    1365.5469   -23299.185   -24711.095    558.17306    221.79437    1246.0772    206.64761    42.297299    42.297299    84.594598 
   28500    1384.7257   -23298.896   -24730.636   -79.785889    1295.2409   -212.24981   -1322.3488    42.297918    42.297918    84.595836 
   28600     1375.878   -23298.756   -24721.347    248.92909    63.005906   -279.87725    963.65861    42.299107    42.299107    84.598213 
   28700    1374.4636   -23298.701    -24719.83    603.79117    1048.4681    770.96867   -8.0632651    42.300652    42.300652    84.601304 
   28800    1371.4447   -23298.661   -24716.668    85.851764    1058.1835   -594.58956    -206.0387    42.303959    42.303959    84.607918 
   28900    1378.1346   -23298.444   -24723.369   -56.163985   -238.51126    -55.63202    125.65132    42.309257    42.309257    84.618515 
   29000    1373.8454   -23298.212   -24718.702   -516.08475   -1187.5061   -531.86351    171.11532    42.314317    42.314317    84.628634 
   29100    1378.4829   -23297.971   -24723.256   -538.99924    273.82154   -116.32762   -1774.4916    42.316983    42.316983    84.633966 
   29200    1371.7875   -23297.711   -24716.074   -205.96076   -685.79619   -85.638077    153.55198    42.317695    42.317695    84.635391 
   29300    1371.8985   -23297.416   -24715.893   -256.69166   -421.31354   -15.580764   -333.18067    42.316912    42.316912    84.633825 
   29400    1377.2306   -23297.073   -24721.064   -357.22385   -294.56019    752.81479   -1529.9261    42.314969    42.314969    84.629938 
   29500    1375.0446   -23296.832   -24718.561   -112.95739   -439.66486   -19.447834    120.24053     42.31184     42.31184     84.62368 
   29600    1370.8259   -23296.586   -24713.954   -14.707128   -1507.4515    387.77662    1075.5535    42.307816    42.307816    84.615633 
   29700    1381.1802   -23296.283   -24724.357    117.52473    216.89718    231.46696   -95.789953    42.303628    42.303628    84.607256 
   29800    1367.5397   -23295.913   -24709.883    513.80459    225.72267    944.20905    371.48204    42.301172    42.301172    84.602344 
   29900    1384.7981   -23295.475    -24727.29   -10.650026    291.33051   -368.80792    45.527326    42.301032    42.301032    84.602063 
   30000    1363.3889   -23295.114   -24704.792    201.46114    887.80586   -816.63998    533.21754    42.301601    42.301601    84.603202 
   30100     1371.129    -23294.73   -24712.411    43.225662    273.67025   -68.689827   -75.303441     42.30251     42.30251     84.60502 
   30200    1379.1472   -23294.332   -24720.304   -204.67083    864.40719   -710.76113   -767.65854     42.30409     42.30409     84.60818 
   30300    1378.3484   -23293.873   -24719.019    108.28321    600.69289    363.44215   -639.28541    42.306059    42.306059    84.612119 
   30400     1361.021   -23293.423   -24700.653     18.33903    459.75578    131.23899   -535.97768      42.3087      42.3087      84.6174 
   30500    1383.5713   -23293.003   -24723.549   -321.05618   -895.00605   -43.254465   -24.908028    42.311276    42.311276    84.622552 
   30600    1380.3422   -23292.736   -24719.943   -545.85662   -677.37393   -1050.3376    90.141702    42.312576    42.312576    84.625152 
   30700    1374.5358   -23292.601   -24713.805   -18.625366    259.53273   -524.31236    208.90353    42.311919    42.311919    84.623838 
   30800    1371.7595   -23292.558   -24710.891    262.52786    805.69615    424.08232   -442.19488    42.310805    42.310805    84.621609 
   30900    1376.5207   -23292.444     -24715.7   -258.88006   -587.06407    30.708795   -220.28492    42.310681    42.310681    84.621361 
   31000    1376.1242   -23292.362   -24715.209   -32.486706    1013.8728   -67.227825   -1044.1051    42.309975    42.309975    84.619951 
   31100    1385.1476   -23292.388   -24724.564    8.3892782    857.62909   -577.00668   -255.45458    42.309242    42.309242    84.618483 
   31200    1364.8576    -23292.45   -24703.648    162.65474   -27.436144      238.536    276.86436    42.308892    42.308892    84.617783 
   31300    1368.9777   -23292.448   -24707.905    79.548751    714.39012   -624.09237     148.3485    42.308882    42.308882    84.617764 
   31400    1389.3657   -23292.389   -24728.926    11.790058   -165.10988   -404.53643    605.01648    42.308912    42.308912    84.617824 
   31500    1378.0368   -23292.429   -24717.253   -96.834519   -841.47547    621.01722   -70.045306    42.309224    42.309224    84.618448 
   31600    1381.2739   -23292.483   -24720.653   -292.35307    691.32261   -836.71364   -731.66818    42.309371    42.309371    84.618743 
   31700    1390.3594   -23292.657   -24730.222   -424.75923    -1118.654   -337.61535    181.99164     42.30899     42.30899    84.617979 
   31800    1366.2666   -23292.842   -24705.496    80.152119   -327.54428    755.13296   -187.13232    42.308271    42.308271    84.616543 
   31900     1376.129   -23293.108   -24715.959    49.029302     -510.171    -377.9689    1035.2278    42.306704    42.306704    84.613409 
   32000    1376.9587   -23293.419   -24717.128     16.14528     122.2811   -479.76352    405.91825    42.305103    42.305103    84.610206 
   32100    1381.7432   -23293.781   -24722.437    32.896899   -956.74915    771.89274    283.54711    42.303169    42.303169    84.606338 
   32200    1381.4667   -23294.193   -24722.563    334.08072   -402.02845    584.94693    819.32369    42.301249    42.301249    84.602497 
   32300    1356.6095   -23294.553   -24697.222    625.43345    666.79566    998.80254    210.70217     42.30078     42.30078     84.60156 
   32400    1374.0785   -23294.828   -24715.559   -163.63733    275.95899   -1181.5739    414.70293    42.301473    42.301473    84.602946 
   32500    1379.0429   -23295.139   -24721.003   -162.08643    790.19903   -1595.2845    318.82623    42.301929    42.301929    84.603859 
   32600    1383.6072   -23295.501   -24726.084   -22.175969    623.89411   -519.71232    -170.7097    42.301727    42.301727    84.603453 
   32700    1383.0946   -23295.911   -24725.964   -194.68735   -1416.9162    212.91636    619.93785    42.301715    42.301715     84.60343 
   32800     1371.529   -23296.383   -24714.478    360.52154    217.25579    168.31773     695.9911    42.302194    42.302194    84.604388 
   32900    1384.5121    -23296.84   -24728.359   -255.15784    180.31933   -803.56559   -142.22727    42.303632    42.303632    84.607264 
   33000    1359.5783   -23297.313   -24703.051    361.59637    915.95444   -255.50347    424.33814    42.304527    42.304527    84.609053 
   33100    1365.6584   -23297.742   -24709.767    310.11235     537.8931    11.319011    381.12495    42.305224    42.305224    84.610447 
   33200    1377.4135   -23298.139   -24722.318    40.739513    476.32303    646.63581   -1000.7403    42.305984    42.305984    84.611967 
   33300    1364.7175   -23298.559   -24709.611    115.06862   -547.26327    684.20485    208.26429    42.306166    42.306166    84.612333 
   33400    1366.1943    -23298.92     -24711.5    210.24442   -577.35981    784.71707      423.376    42.305462    42.305462    84.610924 
   33500    1382.1471   -23299.221   -24728.295   -191.32878   -525.74991    23.286522   -71.522944    42.304761    42.304761    84.609522 
   33600     1371.678   -23299.436   -24717.685   -82.554588   -399.99922   -466.49731    618.83276    42.304336    42.304336    84.608672 
   33700    1359.8439   -23299.559   -24705.572    364.58861   -305.90793     1091.019    308.65478     42.30367     42.30367    84.607341 
   33800    1383.7048   -23299.576   -24730.261   -217.63434   -1030.7417    146.84546    230.99319     42.30356     42.30356     84.60712 
   33900    1358.9398    -23299.55   -24704.628    138.68695   -24.140587    172.06461    268.13681     42.30352     42.30352    84.607041 
   34000    1357.6492   -23299.485   -24703.229     559.4678    467.59129    559.64309    651.16903    42.303634    42.303634    84.607267 
   34100    1382.7414   -23299.337   -24729.025   -245.11764   -136.15765   -498.72154   -100.47373    42.305353    42.305353    84.610707 
   34200    1368.5532   -23299.245   -24714.263   -195.69456   -1382.4699    351.50576     443.8805    42.306641    42.306641    84.613283 
   34300     1372.093   -23299.099   -24717.777    217.13682    946.41989   -836.58868    541.57924    42.306985    42.306985     84.61397 
   34400    1386.0066   -23298.886    -24731.95   -344.49132   -321.71196   -176.35081   -535.41119    42.307701    42.307701    84.615403 
   34500    1373.6542   -23298.718   -24719.011   -55.525258   -148.63944     574.3118   -592.24813    42.307934    42.307934    84.615868 
   34600    1380.4459   -23298.604   -24725.918   -83.939395    307.01954   -414.11314   -144.72459     42.30737     42.30737     84.61474 
   34700    1358.8152   -23298.486   -24703.436    229.58862    805.21445    993.17867   -1109.6273    42.307053    42.307053    84.614105 
   34800    1358.7904   -23298.139   -24703.063    496.45676    667.77356    341.88656    479.71017    42.307936    42.307936    84.615873 
   34900    1384.8672    -23297.72   -24729.606   -99.102318    953.36667   -353.95322    -896.7204    42.309679    42.309679    84.619358 
   35000    1374.2892   -23297.327   -24718.276   -233.49908   -449.11659   -1040.9823    789.60162    42.311395    42.311395    84.622791 
   35100    1373.1764   -23296.928   -24716.726   -170.18293   -297.34186      113.276   -326.48293    42.312145    42.312145    84.624289 
   35200    1381.1933   -23296.428   -24724.515   -545.39877     177.0331   -165.48362   -1647.7458    42.312675    42.312675    84.625351 
   35300     1383.211   -23295.885   -24726.059   -507.35112    135.15995   -630.68763   -1026.5257    42.312468    42.312468    84.624935 
   35400    1365.8433   -23295.482   -24707.698    71.743688    179.10586    268.55291   -232.42771    42.310564    42.310564    84.621128 
   35500    1379.3792   -23295.003   -24721.215    168.64972    375.83052    461.83909   -331.72044    42.308476    42.308476    84.616951 
   35600    1393.5382   -23294.586   -24735.438   -358.33008   -1249.8199    544.16743   -369.33778    42.306929    42.306929    84.613858 
   35700    1361.9863   -23294.315   -24702.543    555.48462     19.50793    620.50177    1026.4442    42.305318    42.305318    84.610636 
   35800    1362.8955   -23294.025   -24703.194    501.96361   -44.024598    599.60245    950.31296    42.304769    42.304769    84.609537 
   35900    1380.8296   -23293.661   -24721.373   -384.74149   -129.66123   -643.90866   -380.65457    42.305463    42.305463    84.610926 
   36000    1369.8734   -23293.322   -24709.706    207.62015    620.85293   -8.6837763    10.691284    42.306032    42.306032    84.612064 
   36100    1394.2255   -23293.027   -24734.589   -311.00997   -20.848093   -865.56628   -46.615525    42.307732    42.307732    84.615464 
   36200    1375.5472   -23292.802   -24715.051    38.156959    231.66118    119.39005   -236.58035    42.310002    42.310002    84.620004 
   36300    1368.6529   -23292.639    -24707.76    15.114561    522.53983   -883.14984     405.9537    42.312206    42.312206    84.624411 
   36400    1369.8524   -23292.434   -24708.796    83.654481   -106.88879    447.65685   -89.804621    42.314149    42.314149    84.628299 
   36500    1386.2119   -23292.202   -24725.478   -743.65142    82.240642    -992.5772   -1320.6177      42.3157      42.3157    84.631401 
   36600    1379.0101   -23291.994   -24717.824   -433.58851   -447.20754   -740.25605   -113.30192    42.315831    42.315831    84.631661 
   36700    1368.0615    -23291.77    -24706.28   -14.387135    1459.7767   -980.11406   -522.82409    42.314999    42.314999    84.629998 
   36800    1381.2551   -23291.548   -24719.699    -287.5756    744.03016   -676.07239   -930.68459    42.313538    42.313538    84.627076 
   36900    1372.5879    -23291.42    -24710.61   -6.6887119    -208.4654    591.02229   -402.62302    42.311176    42.311176    84.622352 
   37000    1385.5675   -23291.361   -24723.971   -121.14481   -93.800696   -308.41291    38.779184    42.308065    42.308065    84.616131 
   37100    1369.9272   -23291.356   -24707.795    326.82615     2016.804    748.47583   -1784.8014     42.30501     42.30501     84.61002 
   37200    1372.2941   -23291.345   -24710.231    257.17767     218.4633    471.42066    81.649043    42.302831    42.302831    84.605662 
   37300    1393.4801   -23291.394   -24732.185   -129.74779   -421.58233   -703.86907    736.20803    42.301609    42.301609    84.603217 
   37400    1384.4246   -23291.612    -24723.04    145.49441    1238.9149   -648.90543   -153.52625    42.300788    42.300788    84.601576 
   37500    1371.4228   -23291.904   -24709.889     363.1784    963.21554   -143.75902    270.07866     42.30094     42.30094    84.601879 
   37600    1367.7542   -23292.183   -24706.375    360.28105    1256.5333   -399.85787    224.16777    42.302748    42.302748    84.605496 
   37700    1370.9232   -23292.406   -24709.875    288.63927   -180.37037    417.05371    629.23446    42.305898    42.305898    84.611797 
   37800    1385.5314   -23292.573   -24725.146   -3.0377724     870.6462   -248.29817   -631.46135    42.309882    42.309882    84.619765 
   37900    1376.7941   -23292.838   -24716.376    125.10419    605.03575   -255.18093    25.457729    42.314132    42.314132    84.628264 
   38000    1372.0808   -23293.029   -24711.695   -173.13571   -812.86738   -25.683212    319.14345    42.319196    42.319196    84.638392 
   38100    1363.0905   -23293.058   -24702.428   -85.637723     11.99418   -441.34757    172.44022    42.323689    42.323689    84.647377 
   38200    1372.1738   -23292.977   -24711.739    -695.4795    43.764255   -1241.9386   -888.26418    42.326532    42.326532    84.653063 
   38300    1363.7085   -23292.926   -24702.935   -324.41747   -292.55122   -491.83888    -188.8623    42.325753    42.325753    84.651505 
   38400    1376.6449   -23292.822   -24716.206   -516.29344    132.78527   -1159.9624   -521.70323     42.32256     42.32256     84.64512 
   38500    1364.9962   -23292.596   -24703.936   -79.132469   -317.58198   -14.306085    94.490664    42.318208    42.318208    84.636415 
   38600    1381.1784   -23292.332   -24720.404   -290.87735   -407.04661   -486.17255    20.587104    42.313086    42.313086    84.626172 
   38700    1394.0863   -23292.179   -24733.597   -535.86928    39.394574   -1229.0947   -417.90777    42.307048    42.307048    84.614096 
   38800     1392.313   -23292.102   -24731.686    55.749272    630.48042   -855.19013    391.95753    42.300827    42.300827    84.601654 
   38900    1377.9391   -23292.109   -24716.832    448.41552    -96.61956      448.284    993.58211    42.296105    42.296105    84.592211 
   39000    1372.3066   -23292.164   -24711.063    422.45637    154.68648    165.08199    947.60063    42.293586    42.293586    84.587171 
   39100    1393.0004   -23292.343   -24732.638    332.88015    1458.0265   -97.978482   -361.40751    42.292629    42.292629    84.585257 
   39200    1383.7974    -23292.85    -24723.63    470.86497    636.96732    992.19566   -216.56808    42.293084    42.293084    84.586168 
   39300    1391.0772   -23293.357   -24731.664   -33.474919    45.448908   -328.18155    182.30788    42.295821    42.295821    84.591642 
   39400    1378.3537   -23293.934   -24719.086    260.89979   -747.93821    1592.8539   -62.216313    42.299159    42.299159    84.598318 
   39500    1383.2529   -23294.578   -24724.795     -45.0411   -513.13857    59.559217    318.45606    42.303106    42.303106    84.606212 
   39600    1373.5634   -23295.211    -24715.41    105.24163    535.09877    372.45435   -591.82822    42.306798    42.306798    84.613596 
   39700    1381.0051   -23295.766   -24723.659   -644.55948   -1120.3366    151.60867   -964.95053    42.309881    42.309881    84.619763 
   39800    1393.6663   -23296.315   -24737.299    -620.3985   -1397.0722    242.92552   -707.04881    42.310901    42.310901    84.621801 
   39900    1359.6551   -23296.834   -24702.652    269.95257   -281.17508    306.93227    784.10053     42.31098     42.31098    84.621959 
   40000    1366.7126   -23297.358   -24710.473   -75.724179     433.0634   -727.18706    66.951118     42.31049     42.31049    84.620979 
   40100    1374.2835   -23297.876   -24718.819   -380.78052   -1227.1867   -134.90031    219.74549    42.309198    42.309198    84.618395 
   40200     1375.921   -23298.404    -24721.04   -194.44041   -866.37732   -376.24418    659.30029    42.306566    42.306566    84.613133 
   40300    1360.4537   -23298.846    -24705.49    697.22025     747.4736    256.60629    1087.5809    42.303553    42.303553    84.607105 
   40400    1359.4055   -23299.074   -24704.634    424.31173    704.92127    -272.0627    840.07662    42.302419    42.302419    84.604837 
   40500    1375.3485   -23299.009   -24721.053   -188.64594   -369.59799    125.18336   -321.52317    42.303274    42.303274    84.606547 
   40600    1377.4514   -23298.897   -24723.116   -67.713788   -154.71231    576.56257   -624.99162    42.303919    42.303919    84.607839 
   40700    1366.4726   -23298.735   -24711.602    498.61149    652.91169   -268.44983    1111.3726    42.304686    42.304686    84.609372 
   40800    1390.9739   -23298.538   -24736.738   -562.65408   -923.17972    739.94161   -1504.7241    42.306138    42.306138    84.612276 
   40900    1349.1134   -23298.438   -24693.356    662.52212    872.84942    1100.2798    14.437187    42.306251    42.306251    84.612502 
   41000    1367.4324   -23298.208   -24712.067    187.13591    260.02062    601.47784   -300.09074     42.30753     42.30753    84.615059 
   41100    1370.2517   -23297.914   -24714.688   -223.66827    13.900508   -266.27053   -418.63478    42.309378    42.309378    84.618756 
   41200    1349.9236   -23297.662   -24693.419    386.86074    484.48349     469.2517    206.84703    42.310062    42.310062    84.620124 
   41300    1363.6856   -23297.202   -24707.187    79.007812   -45.756939     129.9189    152.86148    42.310785    42.310785    84.621571 
   41400    1369.7659   -23296.596   -24712.868   -76.427043    1145.7089   -320.27498   -1054.7151    42.311585    42.311585    84.623171 
   41500    1363.8036   -23296.076   -24706.184    79.571258   -239.29053    1126.0806   -648.07635    42.311915    42.311915     84.62383 
   41600    1374.1841   -23295.482   -24716.322    108.07926    758.55589   -714.96218    280.64406    42.312218    42.312218    84.624436 
   41700    1370.1231   -23294.961   -24711.602   -359.31741    -838.1343   -1279.0716    1039.2537    42.312054    42.312054    84.624109 
   41800    1375.4112   -23294.533   -24716.642   -300.61665   -141.17113    -552.1403   -208.53852    42.310271    42.310271    84.620542 
   41900    1371.0633   -23294.232   -24711.845   -20.556061   -58.560448    739.01231   -742.12004    42.307138    42.307138    84.614275 
   42000    1366.6859   -23293.924   -24707.012    166.99563   -681.89369   -277.91613    1460.7967    42.304653    42.304653    84.609306 
   42100    1368.6867   -23293.656   -24708.813     364.2502    1192.2122   -16.510305   -82.951259    42.303082    42.303082    84.606164 
   42200    1381.9672   -23293.447   -24722.334    101.27334    627.24494   -3.8626356   -319.56228    42.302544    42.302544    84.605089 
   42300    1362.8196   -23293.375   -24702.465    387.03352    739.19194    345.53151    76.377118     42.30247     42.30247    84.604939 
   42400    1372.6222   -23293.244   -24712.469    310.63259   -204.59462      394.494     741.9984     42.30307     42.30307    84.606139 
   42500     1375.231   -23293.112   -24715.035    134.38855    692.82308   -68.644422   -221.01301    42.304712    42.304712    84.609425 
   42600    1387.0304   -23293.078   -24727.201    134.41407    499.61195     475.2245   -571.59424    42.306699    42.306699    84.613398 
   42700    1369.9222   -23293.193   -24709.627     307.2918    28.492825    97.541064     795.8415    42.309388    42.309388    84.618777 
   42800    1372.7262   -23293.239   -24712.572   -117.02435    1097.3511     76.70545   -1525.1296    42.312743    42.312743    84.625487 
   42900    1368.1581   -23293.236   -24707.846     109.9324    416.60608    771.25488   -858.06377    42.314998    42.314998    84.629997 
   43000    1365.3785   -23293.122   -24704.857    -20.48917   -392.03515    392.52702   -61.959375    42.316871    42.316871    84.633743 
   43100    1380.1254   -23292.995   -24719.979   -565.46151    -760.3427   -1553.1262    617.08435    42.317497    42.317497    84.634994 
   43200     1379.126   -23292.944   -24718.894   -562.17516    766.77564   -914.05319   -1539.2479    42.315661    42.315661    84.631323 
   43300    1370.2511   -23292.848   -24709.621    144.60675    68.150307     555.9871   -190.31716    42.312754    42.312754    84.625508 
   43400    1365.7245   -23292.882   -24704.975     17.49774   -795.58121     225.6909    622.38353    42.309643    42.309643    84.619287 
   43500    1376.7397   -23292.959   -24716.442    64.141818   -1155.9825    862.08635    486.32156    42.306073    42.306073    84.612147 
   43600    1385.7237   -23293.064   -24725.836    41.677074   -918.69248    177.19382    866.52988    42.302951    42.302951    84.605903 
   43700    1385.5104   -23293.243   -24725.794   -17.410226    -1059.167    1114.6149   -107.67856    42.300783    42.300783    84.601566 
   43800    1382.6523   -23293.433   -24723.029      137.743   -37.789553    80.349914    370.66864    42.299925    42.299925     84.59985 
   43900    1405.5772   -23293.737   -24747.037   -641.20536   -981.81609   -603.25765   -338.54236    42.299994    42.299994    84.599988 
   44000    1378.1378   -23294.319   -24719.247    52.938893     612.3652   -501.14793    47.599408    42.298952    42.298952    84.597904 
   44100    1371.0694   -23294.987   -24712.607    308.18693    466.61336    13.506489    444.44096    42.298288    42.298288    84.596577 
   44200    1373.0918   -23295.531   -24715.242    439.89611    502.84436    220.56201    596.28194    42.299457    42.299457    84.598914 
   44300     1361.982   -23295.992   -24704.216    632.56118    842.43141    253.76286    801.48927     42.30293     42.30293    84.605859 
   44400    1378.1285   -23296.234   -24721.153     -191.987    762.66816   -442.06054   -896.56862    42.308346    42.308346    84.616693 
   44500    1381.0631   -23296.455   -24724.408   -366.48602   -754.93561   -505.38683    160.86437    42.312905    42.312905    84.625811 
   44600    1376.2877   -23296.703   -24719.719   -207.06635     510.4557   -37.726887   -1093.9279    42.315766    42.315766    84.631533 
   44700    1369.0024   -23296.925   -24712.407   -113.07174    195.31759    383.49607   -918.02889    42.317584    42.317584    84.635169 
   44800    1371.0788    -23296.97     -24714.6   -405.62696   -527.06658    431.75318   -1121.5675    42.318982    42.318982    84.637965 
   44900    1369.6866    -23296.93    -24713.12   -408.22599   -93.989235   -36.816647   -1093.8721    42.318442    42.318442    84.636884 
   45000    1383.6312   -23296.834   -24727.442    -813.2208   -972.08304   -628.17218   -839.40718    42.315818    42.315818    84.631637 
   45100    1395.5239   -23296.869   -24739.773   -918.01913   -558.44732   -903.21994   -1292.3901    42.310737    42.310737    84.621473 
   45200    1362.1514   -23296.972   -24705.371    527.46192     943.4667    118.51876    520.40029    42.303872    42.303872    84.607744 
   45300     1375.095   -23296.949   -24718.731    152.12676   -11.006427    558.03569   -90.648985     42.29821     42.29821    84.596419 
   45400    1372.8418   -23296.866   -24716.318    729.26771    1252.3803    766.87365     168.5492     42.29428     42.29428     84.58856 
   45500    1376.5309   -23296.878   -24720.145     496.2393    733.20775    -372.1111    1127.6213     42.29283     42.29283    84.585661 
   45600    1378.0439   -23296.996   -24721.828    528.72392    -791.9817    511.85069    1866.3028     42.29361     42.29361    84.587221 
   45700    1360.4342   -23297.164   -24703.787     768.5724    357.04319    914.62251    1034.0515    42.296497    42.296497    84.592994 
   45800    1375.1428   -23297.175   -24719.007    358.85505    513.91774    1266.3351   -703.68767    42.302112    42.302112    84.604224 
   45900    1359.6492   -23297.102   -24702.914    252.70108   -431.66276    863.89181     325.8742    42.309288    42.309288    84.618576 
   46000    1377.4369   -23296.843   -24721.046   -795.04236   -1302.9249   -1026.8249   -55.377283    42.316428    42.316428    84.632857 
   46100    1377.4201   -23296.629   -24720.815   -1046.3448   -1847.8298   -91.290563   -1199.9139    42.320254    42.320254    84.640508 
   46200    1373.8874   -23296.443   -24716.976   -600.62265   -1116.8907    -174.4611   -510.51612    42.320585    42.320585    84.641171 
   46300    1361.0876   -23296.262   -24703.561   -414.42196     539.2317    -729.2912   -1053.2064    42.318323    42.318323    84.636647 
   46400    1376.8974   -23296.061   -24719.707   -299.38026    784.89237   -1109.7958   -573.23736    42.313747    42.313747    84.627495 
   46500    1367.5083   -23295.863   -24709.801    132.54255      742.029   -173.46051   -170.94082     42.30814     42.30814     84.61628 
   46600    1378.1585   -23295.685   -24720.635    90.347898    1249.9112   -174.70273   -804.16481    42.303021    42.303021    84.606043 
   46700    1376.2516   -23295.517   -24718.495    130.64528    367.91926    158.79958     -134.783    42.298993    42.298993    84.597986 
   46800    1359.1475   -23295.315   -24700.609    590.06347    2139.4904    102.82742   -472.12745    42.296446    42.296446    84.592893 
   46900    1384.5124   -23294.996   -24726.515    44.013071    547.06973   -492.83787     77.80735    42.296144    42.296144    84.592287 
   47000    1371.3633   -23294.789   -24712.713    320.15208   -42.901209   -54.923684    1058.2811    42.296844    42.296844    84.593687 
   47100    1384.2897   -23294.615   -24725.904    -109.8343    -338.8456   -467.52376    476.86646    42.298726    42.298726    84.597451 
   47200    1354.1835   -23294.505   -24694.666     658.3608    82.789391    1280.3357    611.95732    42.301112    42.301112    84.602224 
   47300    1352.4352   -23294.288   -24692.641    661.91398    961.45329    306.58835    717.70029    42.304684    42.304684    84.609368 
   47400    1377.7109   -23294.021   -24718.508   -159.85137    -192.0471   -325.54676    38.039755    42.308674    42.308674    84.617348 
   47500    1373.4741   -23293.888   -24713.994   -290.69019   -361.94576    14.491467   -524.61628    42.311455    42.311455     84.62291 
   47600    1371.1349   -23293.743   -24711.431   -325.34549    454.18569    597.46661   -2027.6888    42.313103    42.313103    84.626206 
   47700     1374.378   -23293.555   -24714.596    100.79432     215.2592    237.26681   -150.14306    42.313708    42.313708    84.627417 
   47800    1362.7461   -23293.311   -24702.325    364.08682   -53.016861     529.9404    615.33693     42.31465     42.31465      84.6293 
   47900    1364.6853   -23293.021    -24704.04     49.27677    373.92818   -393.77652    167.67865    42.315863    42.315863    84.631726 
   48000    1366.5684   -23292.803   -24705.769    21.870283    843.36963   -819.49181    41.733038     42.31645     42.31645      84.6329 
   48100    1383.0279   -23292.615   -24722.599   -608.70629    1063.6567   -1147.3344   -1742.4412    42.316228    42.316228    84.632456 
   48200    1383.5955   -23292.383   -24722.954   -596.46429   -1208.1265   -824.73566    243.46935    42.314507    42.314507    84.629014 
   48300    1379.1974   -23292.358   -24718.381   -132.23794   -658.91505   -695.84376    958.04499    42.310262    42.310262    84.620525 
   48400    1387.4185   -23292.403   -24726.927   -238.99246    235.16949   -328.31171   -623.83517    42.305083    42.305083    84.610165 
   48500    1374.7138   -23292.467   -24713.854    912.66091    560.48961    840.32901    1337.1641    42.300307    42.300307    84.600613 
   48600     1387.555   -23292.509   -24727.175    180.03667    1050.5625   -354.27579   -156.17668    42.298897    42.298897    84.597793 
   48700    1366.1931   -23292.614   -24705.192    821.40472    919.85006    415.40863    1128.9555    42.299347    42.299347    84.598693 
   48800    1382.4431   -23292.659   -24722.039    65.122793    1347.7879    167.42178   -1319.8413    42.301985    42.301985    84.603969 
   48900    1370.0187   -23292.727    -24709.26    78.260591    494.54169    162.08918    -421.8491    42.305979    42.305979    84.611958 
   49000    1363.4846   -23292.715   -24702.492   -27.853539    730.38546    74.304803   -888.25088    42.310195    42.310195     84.62039 
   49100    1364.1362   -23292.806   -24703.257    14.047754   -431.82186   -358.62579    832.59092    42.312838    42.312838    84.625675 
   49200    1374.0159   -23292.882   -24713.548   -323.37921    712.76126    -2120.584    437.68509    42.314605    42.314605     84.62921 
   49300    1391.9896    -23292.89    -24732.14    -750.2393   -568.04479   -465.44115    -1217.232    42.315027    42.315027    84.630054 
   49400    1376.7114   -23292.975   -24716.429   -298.45081    379.64157   -1172.4556    -102.5384    42.313268    42.313268    84.626536 
   49500    1371.6149   -23293.082   -24711.266    6.4921842    809.11911    459.78116   -1249.4237    42.310087    42.310087    84.620174 
   49600    1359.2678   -23293.139   -24698.556     745.3273    2037.4117   -173.27874    371.84897    42.306496    42.306496    84.612993 
   49700    1379.9922   -23293.111   -24719.956    3.0471834    743.91052   -1290.0625    555.29354    42.304745    42.304745     84.60949 
   49800    1361.2131   -23293.098   -24700.527    578.48098    1786.3552   -147.82117    96.908895    42.304166    42.304166    84.608332 
   49900    1378.7585   -23293.078   -24718.648   -51.700562    265.16667   -193.67431   -226.59404    42.304713    42.304713    84.609426 
   50000    1377.4212   -23293.109   -24717.296   -162.54917   -248.64068   -146.95521   -92.051612    42.305341    42.305341    84.610682 
Loop time of 1403.49 on 1 procs for 50000 steps with 8000 atoms

Pair  time (%) = 1264.03 (90.0635)
Neigh time (%) = 98.942 (7.04973)
Comm  time (%) = 8.14669 (0.580461)
Outpt time (%) = 0.620467 (0.044209)
Other time (%) = 31.7487 (2.26213)

Nlocal:    8000 ave 8000 max 8000 min
Histogram: 1 0 0 0 0 0 0 0 0 0
Nghost:    8224 ave 8224 max 8224 min
Histogram: 1 0 0 0 0 0 0 0 0 0
Neighs:    270076 ave 270076 max 270076 min
Histogram: 1 0 0 0 0 0 0 0 0 0

Total # of neighbors = 270076
Ave neighs/atom = 33.7595
Neighbor list builds = 5000
Dangerous builds = 0
unfix		1

# Melt half the system
region  liquid block INF INF INF INF INF ${nzhalf}
region  liquid block INF INF INF INF INF 10
group	liquid_group region liquid
4001 atoms in group liquid_group

# Heat up one side to Tmelt to make sure it is melted
fix 2 liquid_group npt temp ${Tmelt} ${Tmelt} 1 z 0 0 10 drag 1.0
fix 2 liquid_group npt temp 2000 ${Tmelt} 1 z 0 0 10 drag 1.0
fix 2 liquid_group npt temp 2000 2000 1 z 0 0 10 drag 1.0
run		${eqsteps}
run		50000
Memory usage per processor = 5.95825 Mbytes
Step Temp TotEng PotEng Press Pxx Pyy Pzz Lx Ly Lz 
   50000    1377.4212   -23293.109   -24717.296   -162.54917   -248.64068   -146.95521   -92.051612    42.305341    42.305341    84.610682 
   50100    1380.7608   -23291.081   -24718.721   -50.613794   -310.61571    308.39458   -149.62025    42.305341    42.305341    84.610572 
   50200     1383.381   -23285.808   -24716.158    -53.44365    359.05452   -245.11001   -274.27546    42.305341    42.305341    84.610443 
   50300    1383.0096   -23279.502   -24709.467     113.7879    206.02667    319.17691   -183.83988    42.305341    42.305341    84.610241 
   50400    1387.5473   -23273.719   -24708.377    357.55046   -329.04085    558.82624    842.86598    42.305341    42.305341    84.609993 
   50500    1382.9268   -23268.112   -24697.992    499.07837    35.465277     288.9698       1172.8    42.305341    42.305341    84.610292 
   50600    1394.4522   -23262.161   -24703.958    553.66007    -109.8227    475.46756    1295.3353    42.305341    42.305341    84.611456 
   50700    1401.4369   -23255.805   -24704.824     554.2828    -184.4056     992.7708    854.48321    42.305341    42.305341    84.613375 
   50800    1412.1155   -23249.197   -24709.256    529.21909   -289.54109    140.99041    1736.2079    42.305341    42.305341    84.615785 
   50900    1410.0047   -23242.585   -24700.462    618.30646   -561.81377    973.57118     1443.162    42.305341    42.305341    84.619121 
   51000    1420.0941   -23235.941    -24704.25    765.23287    561.71071    1101.2143    632.77361    42.305341    42.305341     84.62338 
   51100    1419.2434   -23229.199   -24696.628    713.77722    525.74755    811.60704    803.97709    42.305341    42.305341    84.628219 
   51200    1417.7358   -23222.479   -24688.349    1025.5515    484.33755    1182.5397    1409.7773    42.305341    42.305341    84.633522 
   51300    1404.0596   -23215.682   -24667.412    1380.7582    550.30274    1709.9826    1881.9892    42.305341    42.305341    84.639364 
   51400    1412.3166   -23208.932     -24669.2    1496.2101    199.02177    2124.1033    2165.5052    42.305341    42.305341    84.645898 
   51500    1408.2571   -23202.131   -24658.201    1906.4131    1463.7694    2600.3179     1655.152    42.305341    42.305341    84.653261 
   51600     1427.966   -23195.255   -24671.703    1639.2712    1044.4493    2551.7407    1321.6237    42.305341    42.305341    84.661336 
   51700    1434.2703   -23188.393   -24671.359    1484.2672    940.95929     1788.699    1723.1434    42.305341    42.305341    84.670086 
   51800    1447.6521   -23181.506   -24678.309    1108.1794    1110.0735    978.20452    1236.2603    42.305341    42.305341    84.679667 
   51900    1439.7834   -23174.587   -24663.254     1623.211    1385.7437    1632.7616    1851.1276    42.305341    42.305341    84.690027 
   52000    1447.9562     -23167.7   -24664.817    1530.4036    1891.0213    2367.6974    332.49199    42.305341    42.305341    84.701043 
   52100    1444.4754   -23160.815   -24654.333    1775.4722    993.29855    3245.2172    1087.9008    42.305341    42.305341     84.71243 
   52200    1438.6016   -23153.889   -24641.334    1971.1274    1835.8276    1740.4851    2337.0695    42.305341    42.305341    84.724296 
   52300    1451.4717   -23147.022   -24647.774    1790.0566    1125.9418    2505.2378    1738.9903    42.305341    42.305341    84.736921 
   52400    1467.0391   -23140.109   -24656.956    1481.7626    1069.9976    2058.0979    1317.1922    42.305341    42.305341    84.750422 
   52500    1466.2888   -23133.156   -24649.228    1432.1627    1170.8651    1162.2172    1963.4059    42.305341    42.305341    84.764569 
   52600    1456.2625   -23126.199   -24631.904    1964.4393    2000.9176     2565.325    1327.0754    42.305341    42.305341    84.779389 
   52700    1460.3595   -23119.327   -24629.268     2264.007    2128.5642    2923.0244    1740.4324    42.305341    42.305341    84.794966 
   52800    1462.2166   -23112.403   -24624.264    1982.5788     1604.539    1997.8592    2345.3384    42.305341    42.305341    84.811401 
   52900    1474.3267   -23105.436   -24629.819    2098.9309    1871.8392    2724.5053    1700.4483    42.305341    42.305341    84.828628 
   53000    1468.0853   -23098.508   -24616.438    2306.3663    1843.4688    2114.5372     2961.093    42.305341    42.305341    84.846545 
   53100    1485.8127   -23091.617   -24627.876    2063.1474    1914.4154    2193.0254    2082.0013    42.305341    42.305341    84.865563 
   53200    1485.6646   -23084.637   -24620.742    2193.0441    2376.6507    1302.8047     2899.677    42.305341    42.305341    84.885597 
   53300    1493.8865   -23077.672   -24622.279     1602.628    1470.5839     1540.602    1796.6981    42.305341    42.305341    84.906775 
   53400    1491.9909   -23070.747   -24613.394    1770.4507    927.82989    2607.1492    1776.3729    42.305341    42.305341     84.92874 
   53500    1493.4888   -23063.761   -24607.957    1984.8753    1088.9652    3087.6653    1777.9952    42.305341    42.305341     84.95124 
   53600    1491.3805   -23056.812   -24598.828    2040.4855    1996.6261     2427.063    1697.7674    42.305341    42.305341    84.974219 
   53700    1498.2911   -23049.806   -24598.966    2113.6368    2653.0613     2026.194    1661.6553    42.305341    42.305341    84.997845 
   53800    1490.1024   -23042.845   -24583.539    2227.0912    2396.4066    2610.5897    1674.2774    42.305341    42.305341    85.021972 
   53900    1508.8823   -23035.843   -24595.955     1668.287    1696.1937    1919.9655     1388.702    42.305341    42.305341    85.046288 
   54000    1509.9479    -23028.92   -24590.134    2164.0859    1665.4458    2581.2388    2245.5731    42.305341    42.305341    85.070921 
   54100    1516.0264   -23021.921    -24589.42    1509.5863    1497.6406     2365.475    665.64338    42.305341    42.305341    85.096096 
   54200     1504.939   -23014.944   -24570.979    1925.7912    2015.2158    1802.2907    1959.8671    42.305341    42.305341    85.121233 
   54300    1507.1669   -23007.983   -24566.321    2192.5971    2225.6397    2402.3349    1949.8167    42.305341    42.305341    85.146627 
   54400    1508.8184   -23001.046   -24561.091    2240.8697    1476.5778    2771.4941     2474.537    42.305341    42.305341    85.172362 
   54500    1514.9405   -22994.067   -24560.443    1866.7788    1505.5334    3262.7852    832.01787    42.305341    42.305341    85.198587 
   54600    1516.9573   -22987.122   -24555.583    1862.9915    1887.4152      1986.89    1714.6694    42.305341    42.305341    85.224955 
   54700    1537.5188     -22980.1   -24569.821    1414.1847    1791.8267    2071.6965    379.03075    42.305341    42.305341    85.251541 
[...]
  336300     1349.365   -23326.752    -24721.93   -936.99417   -900.03955   -928.68744   -982.25552    42.280098    42.280098    84.815067 
  336400    1355.2606   -23326.798   -24728.072   -818.92991   -1016.7139   -1335.1193   -104.95662      42.2784      42.2784    84.770233 
  336500    1364.3067   -23326.833   -24737.461    -788.7523      -906.84   -966.62169    -492.7952    42.276573    42.276573    84.698295 
  336600    1360.7556   -23326.844     -24733.8    135.89707    510.01787   -727.51175    625.18508    42.274748    42.274748    84.615149 
  336700    1374.5973   -23326.826   -24748.094     262.8826    866.86531   -1050.7706    972.55306    42.273131    42.273131    84.592522 
  336800    1369.7521   -23326.827   -24743.085   -6.6066557    1027.8318    168.88462   -1216.5363    42.271868    42.271868    84.646225 
  336900    1377.5529   -23326.828   -24751.152   -358.18757    1181.1194   -1430.0675   -825.61461    42.270991    42.270991    84.634856 
  337000    1364.3586   -23326.853   -24737.534    492.07184    714.45427    401.49762    360.26363    42.270327    42.270327    84.568871 
  337100    1379.7438   -23326.832   -24753.421    515.93536    1708.7215   -171.09813    10.182744    42.270092    42.270092    84.525259 
  337200     1352.604   -23326.824   -24725.351    1056.0266    1026.6592    1200.4891    940.93156    42.270232    42.270232    84.518578 
  337300    1360.3714   -23326.939   -24733.498    441.55694    301.73223    102.55149    920.38709    42.270656    42.270656    84.589024 
  337400    1368.6169       -23327   -24742.084   -684.50307   -1760.0897   -540.69397    247.27444    42.271129    42.271129    84.721007 
  337500     1362.611   -23326.974   -24735.849   -882.09091   -451.72146   -752.24273   -1442.3085    42.271242    42.271242    84.843588 
  337600         1348    -23326.93   -24720.698   -1171.9753   -446.84423    -1725.791   -1343.2907    42.271083    42.271083    84.863597 
  337700    1376.1586   -23326.971   -24749.853   -1367.4386   -2482.9451    -1717.264    97.893189     42.27044     42.27044    84.803707 
  337800    1355.1493   -23327.016   -24728.175   -454.17356   -654.72004   -360.26783    -347.5328    42.269381    42.269381      84.7268 
  337900    1360.3269    -23327.01   -24733.523    24.982354    631.88194   -341.44702   -215.48786    42.268388    42.268388     84.64298 
  338000    1367.9697   -23327.007   -24741.422    160.30886   -918.60111    110.63772      1288.89    42.267551    42.267551    84.570383 
  338100    1389.8982   -23327.014   -24764.102   -362.21338   -943.06769   -113.15332   -30.419128    42.266794    42.266794    84.591664 
  338200    1377.8692   -23327.052   -24751.702   -227.54534    68.632539   -136.41803   -614.85053    42.266049    42.266049    84.664086 
  338300    1367.2521   -23327.011   -24740.684   -191.73681   -480.45143    439.41912    -534.1781     42.26539     42.26539    84.697853 
  338400    1360.4321   -23327.007   -24733.629   -211.08949   -504.67306    498.25708   -626.85249      42.2648      42.2648    84.697508 
  338500     1362.319   -23327.039   -24735.611     96.91761    562.43152   -37.127495   -234.55119    42.264351    42.264351    84.652636 
  338600    1369.4789   -23327.044   -24743.019    455.85112    1093.8918   -467.62427    741.28579    42.264114    42.264114    84.582485 
  338700    1360.1726   -23327.019   -24733.372    953.51316    79.165714    979.22788    1802.1459    42.264131    42.264131    84.558031 
  338800    1356.9191   -23327.025   -24730.014    431.10234    631.11808    515.67675    146.51218    42.264346    42.264346    84.604251 
  338900    1365.4803   -23327.085   -24738.926   -381.95804   -139.80026   -1085.6322    79.558324    42.264654    42.264654    84.668157 
  339000    1354.3458   -23327.107   -24727.436   -428.71311   -298.53412     -472.818   -514.78721    42.264717    42.264717    84.764107 
  339100    1353.3202   -23327.067   -24726.336   -620.09579    524.70137   -1349.7389   -1035.2499    42.264457    42.264457    84.822229 
  339200    1364.0039   -23327.081   -24737.396   -971.11389   -1128.2365   -1665.2002   -119.90493    42.264005    42.264005    84.814759 
  339300    1381.5162   -23327.107   -24755.528   -1109.6667   -1123.4181   -1612.9072   -592.67477    42.263228    42.263228    84.776509 
  339400    1365.3261   -23327.086   -24738.767   -514.08195   -726.92875   -1154.7675    339.45042     42.26218     42.26218     84.74208 
  339500    1357.2643   -23327.089   -24730.435   -383.03181   -1397.8923    77.236792     171.5601    42.260958    42.260958    84.750616 
  339600     1354.653   -23327.091   -24727.737    -124.2931     -23.3037   -137.62628   -211.94934    42.259631    42.259631    84.759353 
  339700    1362.7363   -23327.126   -24736.129    -213.6944   -400.52492   -20.743484   -219.81481    42.258363    42.258363    84.714809 
  339800    1351.2832   -23327.128   -24724.289    1052.5466    861.85831    497.61141    1798.1702    42.257275    42.257275     84.63802 
  339900    1370.3336    -23327.11   -24743.969    394.24968   -459.10798    1723.9841   -82.127048    42.256557    42.256557    84.628948 
  340000    1362.2023   -23327.111   -24735.562    759.73508     877.2422    414.49994     987.4631    42.256189    42.256189    84.632422 
  340100    1362.1326   -23327.181   -24735.561   -175.86859   -1677.2028    946.43665    203.16037    42.256019    42.256019    84.697473 
  340200     1362.241   -23327.142   -24735.634   -355.94978   -493.04024    183.91843   -758.72753    42.255823    42.255823    84.771559 
  340300    1361.1756   -23327.125   -24734.515   -358.15269   -313.37168    560.81624   -1321.9026    42.255614    42.255614    84.802851 
  340400    1361.3568   -23327.139   -24734.716   -82.767065   -1073.1363    163.45128    661.38378    42.255378    42.255378    84.772693 
  340500    1369.6291   -23327.139    -24743.27   -283.64677    -1501.744   -677.78894    1328.5926    42.254995    42.254995    84.768625 
  340600    1368.6672   -23327.152   -24742.288   -966.68867   -1172.4207   -210.18612   -1517.4592    42.254347    42.254347    84.816019 
  340700     1368.287   -23327.179   -24741.922   -684.16168   -1063.1152   -11.251705   -978.11818    42.253484    42.253484    84.790689 
  340800    1365.8439   -23327.196   -24739.413   -145.14326    753.06017   -976.77438   -211.71557    42.252571    42.252571    84.718159 
  340900    1365.9403   -23327.174    -24739.49    467.59223   -180.01516    1753.8433   -171.05145    42.251702    42.251702    84.666404 
  341000     1378.055   -23327.178   -24752.021    323.24049   -884.97088    831.46198    1023.2304    42.251188    42.251188    84.656054 
  341100    1366.3239   -23327.174   -24739.887     94.72888     632.8274    217.07714    -565.7179    42.250912    42.250912    84.711475 
  341200    1352.9711   -23327.173    -24726.08    278.50329    346.01696     396.2399    93.252999    42.250784    42.250784    84.731783 
  341300    1363.2812   -23327.176   -24736.743    70.533014   -1188.0341    1797.8501   -398.21691    42.250774    42.250774    84.740367 
  341400    1368.8656   -23327.182   -24742.523    -224.6086    26.529765    755.31856   -1455.6741    42.250867    42.250867    84.727606 
  341500    1365.1697   -23327.226   -24738.746    464.00022    240.88025    903.38876    247.73165    42.251153    42.251153    84.652085 
  341600    1361.3232   -23327.191   -24734.734    750.74176    573.02472    726.58565    952.61491    42.251661    42.251661    84.600014 
  341700    1366.7092   -23327.201   -24740.312    756.52747    63.287819    2151.3128    54.981814    42.252385    42.252385    84.608874 
  341800    1361.7022   -23327.212   -24735.147    613.84271    666.01334    591.26835    584.24643    42.253439    42.253439    84.642252 
  341900     1342.653   -23327.255   -24715.494    586.85497    136.72565    902.19841    721.64084    42.254558    42.254558    84.709815 
  342000    1354.9636   -23327.233     -24728.2   -349.76692   -25.416661   -610.15654   -413.72758    42.255554    42.255554    84.780665 
  342100    1367.3905   -23327.239   -24741.055   -496.80623    220.20297   -1081.5111   -629.11059    42.256238    42.256238    84.778952 
  342200    1361.0712   -23327.235   -24734.518    181.44918     47.51123    727.29248   -230.45616    42.256751    42.256751    84.745153 
  342300    1353.8336   -23327.235   -24727.034    487.33429    1351.0716   -211.14814    322.07941    42.257305    42.257305    84.710138 
  342400    1384.6572   -23327.236   -24758.905   -242.28629   -594.72603    -608.6185    476.48564    42.257926    42.257926    84.687457 
  342500    1362.4433    -23327.23    -24735.93   -82.126721    138.57075    186.67497   -571.62588     42.25847     42.25847    84.684319 
  342600    1369.2285   -23327.251   -24742.967    70.773423    222.13814     517.8685   -527.68637    42.258986    42.258986    84.649913 
  342700    1360.5027   -23327.241   -24733.935    451.60943   -300.22955     652.7227    1002.3351     42.25958     42.25958    84.606232 
  342800    1361.7074   -23327.292   -24735.232    486.96946    481.13977    172.19948    807.56912    42.260191    42.260191    84.646562 
  342900    1355.1179   -23327.338   -24728.465    -112.3505    373.00022     -104.438   -605.61371    42.260787    42.260787    84.759572 
  343000    1352.9476   -23327.295   -24726.178   -206.91522    206.71394    933.30427   -1760.7639    42.261265    42.261265    84.792661 
  343100    1364.6026   -23327.346   -24738.279   -159.15495   -328.06612   -154.24116    4.8424332    42.261779    42.261779    84.717244 
  343200    1358.3523   -23327.322   -24731.793    75.659188   -609.91397     543.3155    293.57604    42.262237    42.262237    84.647992 
  343300    1389.2928   -23327.329   -24763.791   -202.49641   -242.20967   -234.40772   -130.87185    42.262701    42.262701    84.596247 
  343400    1352.2661   -23327.331   -24725.509    1138.0274    1675.0512    2400.2254   -661.19446    42.263277    42.263277    84.552529 
  343500    1381.1309   -23327.369   -24755.392    881.82241    1462.5753    989.30207    193.58984    42.264345    42.264345     84.48583 
  343600    1362.6533   -23327.343   -24736.261    1499.6235    1487.9522    2328.3504      682.568    42.265743    42.265743    84.451223 
  343700    1366.0356   -23327.404   -24739.819    894.04647    332.10076    1092.6296     1257.409    42.267491    42.267491    84.486548 
  343800    1366.8963   -23327.475    -24740.78    467.91601    417.51599    1101.1679   -114.93585    42.269355    42.269355    84.594652 
  343900      1341.41   -23327.424   -24714.377    368.41903    834.25126    229.99316    41.012668     42.27121     42.27121    84.671351 
  344000    1369.8308   -23327.434   -24743.773   -372.38373   -1217.5001    51.265974    49.082928    42.272882    42.272882    84.714678 
  344100    1352.7861   -23327.424    -24726.14   -344.21275    131.05502    69.279581   -1232.9729    42.274247    42.274247    84.747732 
  344200    1365.8075   -23327.482   -24739.661   -357.55869   -322.47285    199.30891   -949.51214     42.27539     42.27539    84.698242 
  344300    1366.9775   -23327.524   -24740.913    384.76722   -380.37875    1510.9368    23.743641    42.276374    42.276374    84.593618 
  344400    1372.4434   -23327.476   -24746.516    623.17579    9.1723009   -534.26258    2394.6176    42.277371    42.277371    84.512601 
  344500    1356.1628   -23327.507   -24729.714    618.50021    458.30332    1031.4803    365.71699    42.278222    42.278222      84.5549 
  344600    1368.1381   -23327.508   -24742.097   -499.19421   -1202.6174    131.24305   -426.20832     42.27913     42.27913    84.616711 
  344700    1370.6614   -23327.512    -24744.71   -601.59369   -272.73794   -1634.8056    102.76246    42.279823    42.279823    84.663656 
  344800    1340.8892   -23327.498   -24713.913   -105.19516   -434.79985   -590.32155    709.53591    42.280122    42.280122    84.703921 
  344900    1336.9386   -23327.499   -24709.829    -244.3889   -1116.1818   -1376.6829    1759.6979    42.280065    42.280065     84.73335 
  345000     1351.753   -23327.514   -24725.161   -934.28114   -564.78429    -1283.223   -954.83614    42.279496    42.279496    84.785991 
  345100    1366.7754   -23327.521   -24740.701   -1217.1121   -2144.2217   -1035.2594   -471.85518    42.278575    42.278575    84.776188 
  345200    1362.4171   -23327.573   -24736.247     -473.578   -401.20067   -894.60545   -124.92788    42.277335    42.277335    84.719209 
  345300    1356.4688   -23327.549   -24730.073    285.46523    171.76161   -80.056011    764.69009    42.276147    42.276147    84.651083 
  345400    1361.6074   -23327.564     -24735.4    104.31468   -239.78378    540.59889    12.128926    42.275171    42.275171    84.602964 
  345500    1385.1955   -23327.562   -24759.787   -259.99757   -114.37442   -371.76752   -293.85077    42.274416    42.274416    84.552939 
  345600    1348.8587   -23327.553   -24722.208    1360.6564    1098.0757    1781.8135      1202.08    42.273999    42.273999     84.51179 
  345700    1348.8123   -23327.552   -24722.159     1196.651    1821.5816    1103.1508    665.22075     42.27414     42.27414    84.527552 
  345800     1364.801   -23327.664   -24738.803    213.39121     237.2387     -620.622    1023.5569    42.274592    42.274592    84.604173 
  345900    1356.8782   -23327.617   -24730.564   -464.46974    593.40196   -455.02151   -1531.7897    42.274902    42.274902    84.716892 
  346000    1374.6003   -23327.595   -24748.865   -857.08528   -1220.1921   -946.59035   -404.47345    42.275084    42.275084    84.726726 
  346100    1358.3256   -23327.594   -24732.038   -410.84388   -398.50261   -462.41732    -371.6117    42.274913    42.274913      84.7085 
  346200    1353.3719   -23327.604   -24726.926    132.31985   -1429.8732    1768.8381    57.994595    42.274591    42.274591    84.669238 
  346300    1380.6867   -23327.666    -24755.23   -608.21236    -482.1094   -1094.4619   -248.06575    42.274299    42.274299    84.599818 
  346400    1383.7695    -23327.63   -24758.381    326.85274   -385.24455    539.81329    825.98946    42.274021    42.274021    84.556539 
  346500    1371.0625   -23327.621   -24745.233    46.921632   -145.37723   -261.79063    547.93275    42.273935    42.273935    84.579893 
  346600    1369.7155   -23327.646   -24743.866   -38.411264   -831.74784    215.21069    501.30336    42.273848    42.273848    84.622729 
  346700    1349.0975   -23327.628    -24722.53   -197.91657   -94.179426    390.75135   -890.32165     42.27368     42.27368    84.681119 
  346800    1369.0431   -23327.644   -24743.168   -535.56398   -102.58796   -972.68092   -531.42307    42.273463    42.273463    84.669612 
  346900    1361.2413   -23327.669   -24735.127     103.6506    1007.6037    89.720383   -786.37226     42.27321     42.27321    84.610161 
  347000    1380.7539   -23327.707   -24755.341    133.99587    1158.1423   -862.84406    106.68932    42.273076    42.273076    84.517064 
  347100    1358.3172   -23327.683   -24732.118    842.47829    391.73043    1057.9996    1077.7049    42.273069    42.273069    84.499057 
  347200    1371.0929   -23327.731   -24745.375    253.74363    90.361102    1339.4481   -668.57831    42.273241    42.273241    84.586348 
  347300    1366.7916   -23327.686   -24740.883    -282.0643   -301.08664   -99.617617   -445.48864     42.27363     42.27363     84.64207 
  347400    1369.7298   -23327.692   -24743.926   -237.48271    493.98299   -930.58335   -275.84777    42.274016    42.274016    84.657231 
  347500    1370.3514    -23327.73   -24744.607   -386.86894    -1134.988   -220.13587    194.51701    42.274331    42.274331    84.689624 
  347600    1355.9205   -23327.688   -24729.645   -336.91703   -620.18778   -719.77213    329.20882    42.274421    42.274421    84.729193 
  347700    1353.4512   -23327.697   -24727.101   -690.08223   -1345.8491    -964.1183    239.72067    42.274242    42.274242    84.751612 
  347800    1371.0306   -23327.704   -24745.283   -1175.2586   -2389.5322   -581.00829   -555.23529     42.27367     42.27367    84.759056 
  347900      1373.85   -23327.713   -24748.208    -1163.921   -1674.7782    -1288.347   -528.63781    42.272686    42.272686    84.732142 
  348000    1365.1663   -23327.719   -24739.236   -627.94278   -1550.4635   -672.43407    339.06919    42.271429    42.271429    84.703327 
  348100    1343.1086    -23327.71    -24716.42    364.17977   -54.074303    645.81298    500.80064     42.27009     42.27009    84.688054 
  348200    1362.3657   -23327.714   -24736.334   -321.55867   -762.39455    40.281976   -242.56343    42.268875    42.268875    84.686631 
  348300    1359.4184   -23327.714   -24733.287   -97.164752   -824.53446    286.22491     246.8153    42.267735    42.267735    84.684272 
  348400    1345.5245   -23327.712    -24718.92    365.97259   -12.194573    724.07164    386.04071    42.266684    42.266684    84.675425 
  348500    1366.1531   -23327.724    -24740.26   -253.74165    717.42036    -1240.577   -238.06833    42.265866    42.265866     84.67773 
  348600    1368.2003    -23327.72   -24742.374   -290.76599   -861.15273    -303.1183    291.97306    42.265232    42.265232    84.675302 
  348700    1354.3735   -23327.715   -24728.072    9.7598063   -91.899909    249.77632   -128.59699    42.264675    42.264675    84.678981 
  348800    1359.0222   -23327.712   -24732.875   -74.005072   -257.44811    155.60326   -120.17037    42.264233    42.264233    84.669832 
  348900    1364.1121   -23327.771   -24738.198    542.54453    830.01968    880.86604   -83.252142    42.263904    42.263904    84.613162 
  349000    1376.7155   -23327.751   -24751.208    433.51497    821.67877    316.94786    161.91829    42.264004    42.264004    84.540355 
  349100    1375.2193   -23327.745   -24749.656    819.70022    1007.6143    1517.9913   -66.504969    42.264411    42.264411    84.515248 
  349200      1355.92   -23327.745   -24729.701    908.53487    1927.3776    811.91357   -13.686609    42.265231    42.265231     84.52522 
  349300    1353.7744   -23327.752    -24727.49    1001.0424    1841.2148    1043.5412    118.37117    42.266411    42.266411    84.553598 
  349400    1366.0872   -23327.764   -24740.232    457.17404    1373.0206    525.92749   -527.42591    42.267886    42.267886    84.577816 
  349500    1363.2853   -23327.771   -24737.342    538.52001    9.7163277    615.85355    989.99015    42.269537    42.269537    84.563096 
  349600    1381.5961   -23327.777   -24756.281   -90.389733   -225.95066     258.8272   -304.04574    42.271132    42.271132    84.572334 
  349700    1364.8739   -23327.774   -24738.988    439.81163    408.05692    729.65066     181.7273    42.272669    42.272669    84.573894 
  349800    1373.6121   -23327.782   -24748.031    -124.5517    62.743465     258.1229   -694.52147    42.274229    42.274229    84.576669 
  349900    1362.8553   -23327.794   -24736.921     473.4753    1781.4122    -525.8299    164.84357    42.275683    42.275683    84.549061 
  350000    1374.9608   -23327.789   -24749.433    223.00364    1288.7912   -771.98981    152.20955    42.277168    42.277168    84.542044 
Loop time of 5535.73 on 1 procs for 200000 steps with 8000 atoms

Pair  time (%) = 4985.27 (90.0563)
Neigh time (%) = 395.594 (7.1462)
Comm  time (%) = 32.2181 (0.582002)
Outpt time (%) = 2.48547 (0.0448987)
Other time (%) = 120.161 (2.17064)

Nlocal:    8000 ave 8000 max 8000 min
Histogram: 1 0 0 0 0 0 0 0 0 0
Nghost:    8213 ave 8213 max 8213 min
Histogram: 1 0 0 0 0 0 0 0 0 0
Neighs:    270463 ave 270463 max 270463 min
Histogram: 1 0 0 0 0 0 0 0 0 0

Total # of neighbors = 270463
Ave neighs/atom = 33.8079
Neighbor list builds = 20000
Dangerous builds = 0
unfix		4
