LAMMPS (13 Jan 2014)
dimension       3
boundary        p p p
units           metal

atom_style	atomic
neighbor	0.3 bin
neigh_modify	every 10 delay 0 check no

# Number of steps for the equilibration steps
variable        eqsteps equal 50000

# Number of steps to run our NPH simulation
variable        simsteps equal 200000

# Our trial melting temperature
variable	T equal 1250.0
variable	T2 equal 2*${T}
variable	T2 equal 2*1250

# Some high temperature to melt the crystal
variable	Tmelt equal 2000.0

#System size
variable	nx equal 10
variable	ny equal 10
variable	nz equal 20
variable	nzhalf equal ${nz}*0.5
variable	nzhalf equal 20*0.5
variable	a equal 4.050
variable	length equal ${nz}*${a}
variable	length equal 20*${a}
variable	length equal 20*4.05

lattice		fcc ${a}
lattice		fcc 4.05
Lattice spacing in x,y,z = 4.05 4.05 4.05

region         box block 0 ${nx} 0 ${ny} 0 ${nz}
region         box block 0 10 0 ${ny} 0 ${nz}
region         box block 0 10 0 10 0 ${nz}
region         box block 0 10 0 10 0 20
create_box     1 box
Created orthogonal box = (0 0 0) to (40.5 40.5 81)
  1 by 1 by 1 MPI processor grid
create_atoms   1 box
Created 8000 atoms

mass		1 26.9815

pair_style	eam/alloy
pair_coeff	* * Al_potential.alloy Al

velocity	all create ${T2} 1337
velocity	all create 2500 1337

# Create a dump file. This can be visualized with
# e.g. OVITO (http://www.ovito.org/)
dump		id all atom 1000 atomsdump

# 1 fs timestep
timestep	0.001
thermo_style	custom step temp etotal pe press pxx pyy pzz lx ly lz

# output every 100th timestep
thermo		100

# Equilibration the whole system to the trial melting temperature
fix		1 all npt temp ${T} ${T} 1 iso 0 0 3 drag 1.0
fix		1 all npt temp 1250 ${T} 1 iso 0 0 3 drag 1.0
fix		1 all npt temp 1250 1250 1 iso 0 0 3 drag 1.0
run		${eqsteps}
run		50000
Memory usage per processor = 5.95314 Mbytes
Step Temp TotEng PotEng Press Pxx Pyy Pzz Lx Ly Lz 
       0         2500   -24592.372   -27177.252    16717.163    16528.314    16508.779    17114.396         40.5         40.5           81 
     100     1170.825   -24620.287   -25830.863    42729.439    43107.731    42945.151    42135.436    40.591527    40.591527    81.183055 
     200    1173.1652   -24668.169   -25881.165    29591.305    30473.052    29514.079    28786.784    40.813936    40.813936    81.627872 
     300    1144.2359   -24694.916   -25878.001    19877.102    20263.056    19466.148    19902.103    41.002645    41.002645     82.00529 
     400    1135.7092   -24706.147   -25880.416    12627.482    13186.171     12141.81    12554.466    41.148214    41.148214    82.296428 
     500    1113.5113   -24708.927   -25860.245    7071.5653    7091.6705    6607.3606    7515.6647    41.271156    41.271156    82.542312 
     600    1100.3596   -24706.707   -25844.426    3005.0953    3284.9584    3159.7613    2570.5664    41.367931    41.367931    82.735862 
     700    1097.2022    -24701.64   -25836.094    -108.8452   -450.03927    106.68518    16.818502    41.436781    41.436781    82.873563 
     800    1101.9732   -24695.709   -25835.096    -2140.518   -2079.8068   -2252.0629   -2089.6844    41.479549    41.479549    82.959098 
     900    1093.7145   -24690.022    -25820.87   -2597.6633   -2772.9155    -2557.192   -2462.8825    41.500549    41.500549    83.001098 
    1000    1106.2547   -24684.564   -25828.378   -3041.7145   -3416.4867   -3021.2726   -2687.3842     41.50516     41.50516     83.01032 
    1100    1091.3416   -24679.392   -25807.787   -1955.5832   -2294.0233   -1840.4753   -1732.2509    41.496924    41.496924    82.993848 
    1200    1108.7647   -24674.174   -25820.583   -1513.8103   -1630.6828   -1409.4638   -1501.2842    41.481782    41.481782    82.963564 
    1300    1103.7116   -24668.806   -25809.991   -410.44186     225.0717   -974.78026   -481.61702     41.46413     41.46413     82.92826 
    1400    1099.9744   -24663.282   -25800.603    528.08862    478.02807    476.06958    630.16821    41.448167    41.448167    82.896333 
    1500    1128.0913   -24657.725   -25824.117    642.87001    1022.4932    279.14711    626.96974     41.43616     41.43616    82.872321 
    1600    1118.8182   -24652.301   -25809.105    1185.2227    1075.2624    1713.9447      766.461    41.429641    41.429641    82.859281 
    1700    1121.3975   -24646.905   -25806.376    1428.2268     1073.219    1703.7229    1507.7385    41.429511    41.429511    82.859022 
    1800    1118.9516    -24641.57   -25798.512    1440.3578    995.49979    1823.4888    1502.0849    41.435301    41.435301    82.870602 
    1900    1130.0805   -24636.313   -25804.761    731.01378    1063.0424    204.49369    925.50529     41.44548     41.44548     82.89096 
    2000    1132.5323   -24631.104   -25802.087    163.73512   -278.15399   -40.443645    809.80299    41.457603    41.457603    82.915206 
    2100    1132.1547   -24625.853   -25796.447    1.9635502    410.33216   -95.461389   -308.98012     41.46947     41.46947    82.938939 
    2200    1138.4355    -24620.68   -25797.767   -543.08483   -258.72885   -367.00976   -1003.5159      41.4795      41.4795       82.959 
    2300    1122.4419   -24615.514   -25776.065   -335.51471    43.467049   -563.28347   -486.72772    41.486992    41.486992    82.973985 
    2400    1143.4316   -24610.244   -25792.497   -783.46694   -480.55295    -1043.168   -826.67992    41.491963    41.491963    82.983926 
    2500    1136.6917   -24605.069   -25780.353   -595.94885     -803.852   -269.74529   -714.24925    41.493662    41.493662    82.987323 
    2600    1136.7069   -24599.974   -25775.275   -371.44315    499.67707    42.162059   -1656.1686    41.492834    41.492834    82.985669 
    2700    1138.7763   -24594.918   -25772.358   -350.64864    243.10768   -588.63309   -706.42052     41.49046     41.49046    82.980919 
    2800    1147.0192   -24589.862   -25775.824   -123.53001   -25.033774   -395.64718    50.090929    41.487615    41.487615     82.97523 
    2900    1141.3254   -24584.939   -25765.015    345.63874    287.79133    234.20212    514.92279    41.484878    41.484878    82.969757 
    3000    1153.3976   -24580.053    -25772.61    81.592031    310.97704   -365.71549    299.51454    41.483824    41.483824    82.967649 
    3100    1140.7145   -24575.295   -25754.739    593.37402    510.40322    663.78111    605.93773    41.484129    41.484129    82.968258 
    3200    1152.8051   -24570.549   -25762.494    374.12833    725.00795    91.780787    305.59625    41.486243    41.486243    82.972487 
    3300    1149.4874   -24565.874   -25754.388    281.23062    1080.2439   -285.64995    49.097891    41.490082    41.490082    82.980165 
    3400    1143.3605   -24561.236   -25743.416    554.68738    787.46306     556.0938    320.50529    41.494976    41.494976    82.989953 
    3500    1151.8852   -24556.611   -25747.605    232.69864    38.550865    397.03663    262.50841    41.501052    41.501052    83.002105 
    3600    1149.8207   -24551.991    -25740.85    75.124522    13.560387    62.790053    149.02313    41.507819    41.507819    83.015638 
    3700    1170.1542   -24547.334   -25757.217   -681.75222    -282.4926   -787.04659   -975.71748    41.514345    41.514345    83.028689 
    3800    1150.6423   -24542.779   -25732.488   -82.329545   -382.59633    598.82902   -463.22132     41.51894     41.51894    83.037881 
    3900    1164.4237   -24538.293   -25742.252   -550.46382   -10.088229   -685.90113   -955.40211    41.521962    41.521962    83.043923 
    4000    1163.4605   -24533.806   -25736.768    -416.6679   -613.81648   -423.15242    -213.0348    41.523148    41.523148    83.046295 
    4100    1157.5911   -24529.432   -25726.326   -102.14126    83.431926    308.79077   -698.64649    41.522348    41.522348    83.044697 
    4200    1156.7581   -24525.128    -25721.16    60.614146     617.7983   -257.54032   -178.41555    41.520541    41.520541    83.041083 
    4300    1175.3897   -24520.836   -25736.132  -0.26775469    237.98275     470.7994   -709.58542    41.518472    41.518472    83.036943 
    4400    1173.6781   -24516.672   -25730.199    162.96747    452.68737    160.33731   -124.12228    41.516736    41.516736    83.033471 
    4500    1167.5973   -24512.509   -25719.748    362.84679    401.27855    30.850723    656.41108    41.516418    41.516418    83.032836 
    4600    1174.7295   -24508.366    -25722.98    298.05132    430.03166   -181.03841    645.16071    41.517679    41.517679    83.035359 
    4700    1179.5176   -24504.312   -25723.877    219.41561    621.51253   -97.908329    134.64263    41.520311    41.520311    83.040621 
    4800    1173.6954   -24500.345    -25713.89     488.4648    190.58161    917.66215    357.15063    41.524136    41.524136    83.048272 
    4900    1169.3467   -24496.362    -25705.41    199.15847    745.59321   -277.54601     129.4282    41.529476    41.529476    83.058953 
    5000    1173.1159   -24492.396   -25705.342    107.17533    270.60498    96.363084   -45.442069    41.535224    41.535224    83.070449 
    5100    1179.2272   -24488.467   -25707.731   -99.307725   -36.794789   -108.93562   -152.19277    41.540714    41.540714    83.081428 
    5200    1178.7645   -24484.539   -25703.325   -325.03751   -158.36725   -201.36817    -615.3771    41.545419    41.545419    83.090839 
    5300    1178.0055   -24480.623   -25698.624    -265.5567   -869.54828    54.510505    18.367688    41.548787    41.548787    83.097573 
    5400    1177.5451   -24476.732   -25694.257   -242.89689    214.49509   -169.97391   -773.21186    41.550317    41.550317    83.100633 
    5500    1183.8651    -24472.94   -25696.999    -358.0009   -721.89211   -276.48607   -75.624527    41.549731    41.549731    83.099462 
    5600    1182.5591   -24469.187   -25691.896   -1.6538164   -435.22268    1145.8689   -715.60766    41.548303    41.548303    83.096606 
    5700    1196.6396   -24465.459   -25702.727   -203.43326   -220.28499   -200.93631   -189.07849    41.546627    41.546627    83.093253 
    5800    1196.2454   -24461.907   -25698.767    155.22415   -8.1572479    856.96641   -383.13673    41.544603    41.544603    83.089205 
    5900    1195.4682   -24458.386   -25694.442    146.93541   -630.57038     926.1701    145.20652    41.543925    41.543925    83.087851 
    6000    1184.1561   -24454.962   -25679.322    593.10306     522.0446    614.34753    642.91705    41.544541    41.544541    83.089082 
    6100    1188.7392   -24451.536   -25680.635    463.79648    318.22441    1131.9696   -58.804595    41.547205    41.547205     83.09441 
    6200    1203.4871   -24448.127   -25692.475   -154.14135   -612.07576    617.04627   -467.39457    41.551339    41.551339    83.102679 
    6300    1197.0522   -24444.761   -25682.455    135.53135   -60.936231    -49.45754    516.98783    41.556104    41.556104    83.112209 
    6400    1200.7655   -24441.334   -25682.867   -274.14999   -158.94672    45.268521   -708.77177    41.561524    41.561524    83.123048 
    6500    1173.9385   -24438.074    -25651.87     359.6115    382.75138    553.68326    142.39986    41.565173    41.565173    83.130346 
    6600    1207.9276    -24434.75   -25683.689   -446.63875   -612.91822   -376.40311   -350.59493    41.568624    41.568624    83.137247 
    6700    1181.8022   -24431.508   -25653.435    159.62117   -184.15262    277.39248    385.62365    41.570798    41.570798    83.141596 
    6800     1197.626   -24428.183   -25666.471    -395.9266    -831.5847   -500.03497    143.83986    41.572385    41.572385    83.144771 
    6900    1210.8117   -24424.949    -25676.87   -458.50188   -8.9793313     -966.885   -399.64131     41.57235     41.57235      83.1447 
    7000    1189.5181    -24421.88   -25651.785    154.67844    12.193624    131.22724    320.61445    41.570831    41.570831    83.141661 
    7100    1201.3624   -24418.777   -25660.928    213.97089   -146.92674    1099.5526   -310.71315    41.569475    41.569475     83.13895 
    7200     1178.677     -24415.7   -25634.396    773.07277    1482.2933    194.71443    642.21061    41.568985    41.568985    83.137971 
    7300    1207.7658   -24412.554   -25661.326    69.259747    576.60574    -110.5299    -258.2966    41.570142    41.570142    83.140283 
    7400    1209.6832   -24409.559   -25660.313    141.98144    -41.75242   -238.39395    706.09068    41.571258    41.571258    83.142516 
    7500    1212.2107   -24406.674   -25660.041    62.723581   -741.45187    157.79336    771.82926    41.573095    41.573095     83.14619 
    7600    1204.7801   -24403.898   -25649.582     201.9193   -504.39011    724.49145    385.65655    41.575352    41.575352    83.150704 
    7700    1206.4221   -24401.159   -25648.541    133.00574   -140.28507     373.2974    166.00487     41.57781     41.57781    83.155621 
    7800     1196.032   -24398.469   -25635.108    258.22637    105.02063    378.87078     290.7877    41.580208    41.580208    83.160416 
    7900      1200.95   -24395.696   -25637.421    231.74302    57.477215   -170.46026    808.21209    41.583079    41.583079    83.166157 
    8000    1212.1952   -24392.897   -25646.249    -262.7886   -170.23796   -297.85444   -320.27341    41.586309    41.586309    83.172619 
    8100    1225.2629   -24390.076   -25656.939   -439.46396    -910.8283    -141.5597   -266.00389    41.589573    41.589573    83.179145 
    8200    1213.0572   -24387.304   -25641.547   -124.13221   -134.98076    429.13234   -666.54821     41.59215     41.59215    83.184301 
    8300    1230.3298   -24384.636   -25656.738    -695.8469   -312.45077   -1342.5786    -432.5113    41.593538    41.593538    83.187076 
    8400    1208.3162   -24382.148   -25631.489    45.245975   -468.65968    270.23887    334.15873    41.593038    41.593038    83.186077 
    8500     1209.891    -24379.58   -25630.549   -35.964677     103.0836   -551.16782     340.1902    41.592614    41.592614    83.185228 
    8600     1236.773   -24377.011   -25655.775   -576.61888   -959.06061    33.454524   -804.25057     41.59206     41.59206     83.18412 
    8700    1220.4797   -24374.598   -25636.516    43.721426   -55.219769    296.74596   -110.36191    41.590786    41.590786    83.181572 
    8800    1219.1704   -24372.286    -25632.85    294.88219    455.13337    695.78767   -266.27447    41.589658    41.589658    83.179316 
    8900    1227.7072   -24369.961   -25639.351   -53.914695    340.16658    -49.53092   -452.37974    41.589888    41.589888    83.179776 
    9000    1226.4212   -24367.661   -25635.722    77.056735    114.52904   -428.41619    545.05735    41.590824    41.590824    83.181647 
    9100    1215.4581   -24365.426   -25622.152    329.84087    172.15845    561.85286    255.51129     41.59256     41.59256    83.185121 
    9200    1223.8012   -24363.164   -25628.516   -36.376406   -34.369407   -8.0721858   -66.687626    41.595244    41.595244    83.190489 
    9300     1227.407    -24360.97    -25630.05   -145.85723    -151.6964   -300.60536    14.730084    41.597873    41.597873    83.195747 
    9400    1229.8617   -24358.851   -25630.468     -107.207   -342.42797    153.80059   -132.99362    41.600236    41.600236    83.200473 
    9500    1211.0902   -24356.753   -25608.962    331.80499    61.657728    30.213279    903.54397    41.602367    41.602367    83.204733 
    9600    1238.0718   -24354.587   -25634.694   -356.10811   -762.46548   -600.83055     294.9717    41.605087    41.605087    83.210175 
    9700    1224.4877   -24352.503   -25618.565    2.4948954    376.39222   -264.47001   -104.43752    41.606822    41.606822    83.213644 
    9800    1228.7644   -24350.473   -25620.956   -133.98056   -524.94944    367.79459   -244.78682    41.607928    41.607928    83.215856 
    9900    1214.8766   -24348.462   -25604.586     114.4969   -95.470913    260.26498    178.69663    41.608249    41.608249    83.216498 
   10000     1230.213   -24346.433   -25618.414   -238.35936    233.60032    222.79798   -1171.4764    41.608251    41.608251    83.216501 
   10100    1231.1057   -24344.348   -25617.253   -168.59075    179.70252   -384.92265   -300.55211    41.608154    41.608154    83.216309 
   10200    1221.4512   -24342.382   -25605.304    286.24576    101.92925    114.61578    642.19226    41.607276    41.607276    83.214551 
   10300    1246.4942   -24340.462   -25629.277   -229.00394    -361.6241   -358.28891    32.901168    41.606903    41.606903    83.213806 
   10400    1223.2782   -24338.614   -25603.425    454.83466    866.96165    140.20452     357.3378    41.607197    41.607197    83.214393 
   10500    1234.5922   -24336.682   -25613.191   -9.5180872   -749.70237   -287.84039    1008.9885    41.609297    41.609297    83.218595 
   10600    1228.8807   -24334.786    -25605.39   -5.7955072    483.71605   -251.59106   -249.51151    41.612165    41.612165     83.22433 
   10700    1225.1665    -24332.81   -25599.573    241.98038    881.57303   -13.855907   -141.77598    41.615535    41.615535    83.231071 
   10800    1226.4564    -24330.82   -25598.917   -88.315879   -84.273483   -305.97388    125.29972    41.619241    41.619241    83.238482 
   10900    1238.8517   -24328.708   -25609.621   -447.24909   -579.26729    252.37341   -1014.8534     41.62314     41.62314    83.246281 
   11000    1227.3889   -24326.677   -25595.738   -243.47493    878.59643   -707.99953   -901.02168    41.625671    41.625671    83.251343 
   11100    1242.5765   -24324.779   -25609.543    -673.5885    -1063.034   -812.80366   -144.92787    41.626344    41.626344    83.252688 
   11200    1246.8441   -24322.999   -25612.176   -572.57073   -731.08707   -619.68579   -366.93932    41.624668    41.624668    83.249336 
   11300    1231.6495   -24321.302   -25594.769    187.92386   -56.917608    354.00659     266.6826    41.621571    41.621571    83.243143 
   11400    1242.8874   -24319.617   -25604.703   -22.938455    85.117659    37.260454   -191.19348     41.61883     41.61883    83.237661 
   11500    1232.7021   -24318.047   -25592.602       413.37   -25.062212    886.76816    378.40407    41.616349    41.616349    83.232699 
   11600    1226.8858   -24316.538   -25585.078    635.51819    1238.5199    101.72624    566.30846    41.615171    41.615171    83.230342 
   11700    1229.3449   -24315.066    -25586.15     511.1567     453.9909    624.68538    454.79383    41.615873    41.615873    83.231747 
   11800     1233.897   -24313.627   -25589.417    221.61967    695.41529    346.55115   -377.10743    41.618196    41.618196    83.236391 
   11900     1236.965   -24312.168   -25591.131    186.25721    261.41534    823.40149    -526.0452    41.621674    41.621674    83.243349 
   12000    1237.9313   -24310.651   -25590.613    79.992949   -110.50974    674.17947   -323.69088    41.626327    41.626327    83.252654 
   12100    1250.3507   -24309.135   -25601.937   -633.43617    183.52135    -479.3708    -1604.459    41.631005    41.631005     83.26201 
   12200    1237.6464   -24307.844   -25587.511   -61.065847    0.5552466    15.726003   -199.47879    41.633397    41.633397    83.266793 
   12300    1235.9877   -24306.647   -25584.599   -32.549933   -86.710054      370.671   -381.61075    41.634568    41.634568    83.269135 
   12400    1233.0543   -24305.458   -25580.377   -116.09034   -349.30493    403.53256   -402.49866    41.634888    41.634888    83.269777 
   12500     1239.644   -24304.191   -25585.923   -247.16131   -921.21408    438.55753   -258.82738    41.634243    41.634243    83.268486 
   12600    1239.3779   -24302.948   -25584.405   -66.143232   -84.981942    -329.4689    216.02115    41.632138    41.632138    83.264276 
   12700    1243.5341   -24301.804   -25587.558   -56.019881   -154.07232    61.036602   -75.023926    41.629193    41.629193    83.258386 
   12800    1239.1589   -24300.721   -25581.952    319.60575   -44.310229    376.23461    626.89286     41.62644     41.62644    83.252881 
   12900    1247.5813   -24299.658   -25589.597    114.46769   -551.86656    49.981109    845.28851    41.624938    41.624938    83.249875 
   13000    1242.9039   -24298.653   -25583.756    316.78909    394.79332    150.09912    405.47483     41.62458     41.62458     83.24916 
   13100    1257.9157   -24297.729   -25598.353    44.102305    -321.5778   -100.06715    553.95186    41.625645    41.625645    83.251289 
   13200    1252.6755   -24296.921   -25592.127    202.67093   -372.68747    579.36273    401.33752    41.627586    41.627586    83.255172 
   13300    1232.1063   -24296.197   -25570.136    398.15067    350.23203    354.30092    489.91908    41.630517    41.630517    83.261035 
   13400    1240.3566   -24295.372   -25577.841    132.78829    111.59181    427.94222   -141.16915    41.634407    41.634407    83.268815 
   13500    1243.1344   -24294.494   -25579.835    -8.288816   -766.22748   -220.28456    961.64559    41.638244    41.638244    83.276488 
   13600    1246.3724   -24293.695   -25582.384   -463.12816   -451.62415    180.22646   -1117.9868    41.641023    41.641023    83.282046 
   13700    1254.8779   -24293.069   -25590.552   -571.54342   -570.26777   -708.51782   -435.84468    41.641453    41.641453    83.282905 
   13800    1237.9954   -24292.454   -25572.482    70.291384     525.2976   -509.50328    195.07983    41.640395    41.640395    83.280791 
   13900    1261.0173   -24291.792   -25595.623   -509.61181   -930.85324   -399.26589    -198.7163    41.638856    41.638856    83.277711 
   14000    1238.3679   -24291.314   -25571.726    70.614385     275.2149   -302.38343    239.01169    41.635591    41.635591    83.271183 
   14100     1234.555   -24290.845   -25567.316    467.33059    990.32222     711.3733   -299.70376    41.632243    41.632243    83.264485 
   14200    1241.8869   -24290.315   -25574.366    406.97102    689.09451    -38.00105    569.81959    41.630374    41.630374    83.260749 
   14300    1236.0057    -24289.78   -25567.751    612.02518    1194.7535   -338.87029    980.19236    41.629697    41.629697    83.259395 
   14400    1262.1611   -24289.239   -25594.253   -257.51359    270.00622   -477.39573   -565.15125    41.630819    41.630819    83.261637 
   14500    1254.1173   -24288.696   -25585.393    104.61912     988.5648    543.29493   -1218.0024    41.632969    41.632969    83.265938 
   14600    1254.7842   -24288.162   -25585.548    -197.7497    678.89148   -614.75949    -657.3811    41.635691    41.635691    83.271382 
   14700     1246.143   -24287.732   -25576.184   -36.519301    -7.418909     298.6435    -400.7825    41.637695    41.637695     83.27539 
   14800    1233.6245   -24287.336   -25562.844    185.46232    254.62594    107.00029    194.76072     41.63912     41.63912     83.27824 
   14900    1244.2354   -24286.905   -25573.384   -129.07063    196.17455   -320.39761   -262.98883    41.639832    41.639832    83.279664 
   15000    1240.0719   -24286.429   -25568.604    51.488396   -377.55543    213.24428    318.77633    41.639872    41.639872    83.279744 
   15100    1254.7468   -24285.966   -25583.314   -319.47393   -253.76519   -522.06053   -182.59608    41.639333    41.639333    83.278666 
   15200    1249.6474   -24285.603   -25577.678   -49.888824   -603.82827    172.68952    281.47228    41.637896    41.637896    83.275791 
   15300    1238.6659   -24285.173   -25565.894    209.96751    104.41304    597.64715    -72.15765     41.63683     41.63683     83.27366 
   15400    1241.1846    -24284.63   -25567.955    188.48222   -269.16324    307.52428    527.08562    41.636986    41.636986    83.273972 
   15500    1244.0722   -24284.086   -25570.397    289.73902    563.28309   -106.78566    412.71964    41.638021    41.638021    83.276043 
   15600    1243.2043   -24283.571   -25568.985    156.57397   -410.84528    886.44143   -5.8742206    41.639911    41.639911    83.279821 
   15700    1228.4674   -24282.908   -25553.084    494.60305     598.3233    502.89756     382.5883    41.642894    41.642894    83.285787 
   15800    1244.9422   -24282.182   -25569.392   -72.318719   -253.09753    114.14701   -78.005632    41.645983    41.645983    83.291965 
   15900    1255.0886   -24281.388   -25579.089   -695.81699   -718.20663   -836.08793    -533.1564    41.648447    41.648447    83.296893 
   16000    1243.8982   -24280.531   -25566.662    -424.4428   -1370.0591   -386.53467    483.26537    41.649472    41.649472    83.298943 
   16100    1245.7458   -24279.694   -25567.735   -9.4825292    244.82493    729.80216   -1003.0747    41.649064    41.649064    83.298128 
   16200    1241.1855   -24278.827   -25562.153    12.137231   -30.324467    821.25147   -754.51531    41.648499    41.648499    83.296997 
   16300    1246.7997   -24278.044   -25567.175   -148.43626    188.83059   -842.44372    208.30434    41.646965    41.646965     83.29393 
   16400    1248.9811   -24277.392   -25568.778   -23.570063     789.4643   -361.08594   -499.08855    41.644547    41.644547    83.289094 
   16500    1240.7617   -24276.776   -25559.664    286.73106    505.39736   -143.17577    497.97159    41.642388    41.642388    83.284776 
   16600    1252.2162   -24276.176   -25570.907    31.914742   -502.55437   -734.23461    1332.5332    41.640957    41.640957    83.281915 
   16700    1248.6052   -24275.572    -25566.57    205.94753   -620.24423     918.0755     320.0113    41.640588    41.640588    83.281177 
   16800    1248.9204    -24275.04   -25566.364    171.69055    60.609045     7.042792    447.41981    41.641265    41.641265     83.28253 
   16900    1240.7942   -24274.682   -25557.603    214.97941    114.25125    662.88295   -132.19598    41.642378    41.642378    83.284755 
   17000    1250.3896   -24274.346   -25567.188   -3.5015492   -341.03644   -283.28767    613.81947    41.643879    41.643879    83.287759 
   17100     1251.456   -24274.139   -25568.084    -45.36384   -254.32288    35.751543    82.479813    41.645111    41.645111    83.290223 
   17200    1247.3253   -24273.941   -25563.615   -70.642017   -267.38896    240.21986   -184.75695    41.646764    41.646764    83.293528 
   17300    1252.4971   -24273.711   -25568.732   -119.45077   -318.12995   -318.93225    278.70989    41.648489    41.648489    83.296978 
   17400    1250.3988   -24273.553   -25566.405   -324.84397   -14.518433   -581.97662   -378.03685    41.649164    41.649164    83.298328 
   17500    1257.2413    -24273.46   -25573.387   -223.77761   -330.33154   -319.14953   -21.851746    41.648234    41.648234    83.296468 
   17600     1242.415   -24273.465   -25558.063    326.39769    188.72677    658.30597    132.16032    41.646351    41.646351    83.292702 
   17700    1250.3039   -24273.427   -25566.181    36.394784   -109.78416    321.32963   -102.36112    41.645197    41.645197    83.290393 
   17800    1251.2603   -24273.352   -25567.095   -96.174509   -513.85703   -21.359276    246.69278    41.644613    41.644613    83.289225 
   17900    1235.0579   -24273.408   -25550.398    466.13999    261.57484    698.43336    438.41178    41.643354    41.643354    83.286709 
   18000    1242.6952   -24273.471   -25558.359    283.73628    688.06666     48.14707    114.99511    41.642594    41.642594    83.285188 
   18100    1254.4504   -24273.468   -25570.509   -61.740211    129.97551    260.60284   -575.79899    41.643027    41.643027    83.286053 
   18200    1242.3868   -24273.499   -25558.067    342.82342    552.68391    311.63303    164.15333    41.643741    41.643741    83.287482 
   18300    1251.5456   -24273.597   -25567.635    9.4833876   -304.84547    126.66366    206.63197    41.644556    41.644556    83.289112 
   18400    1256.4488   -24273.656   -25572.763   -222.25334    133.06206   -491.37709     -308.445    41.645707    41.645707    83.291413 
   18500    1256.8267   -24273.618   -25573.116   -61.662743   -371.11642    354.41827   -168.29008    41.646993    41.646993    83.293987 
   18600     1249.645   -24273.607   -25565.679    8.9562589    266.73595   -443.37909    203.51192    41.648105    41.648105    83.296211 
   18700    1250.9664    -24273.59   -25567.029   -303.66193   -424.68113    -276.2108   -210.09387    41.648778    41.648778    83.297556 
   18800         1255   -24273.564   -25571.173   -427.47471   -53.512331   -600.10571   -628.80609     41.64844     41.64844    83.296881 
   18900    1238.0203   -24273.463   -25553.517    101.76991    22.947807     286.5016   -4.1396767    41.647751    41.647751    83.295501 
   19000    1237.9955   -24273.208   -25553.235    242.05869   -184.20999    458.39602    451.99003     41.64777     41.64777     83.29554 
   19100    1252.4708    -24272.83   -25567.825   -197.07796   -178.59621    -563.9511    151.31342    41.648302    41.648302    83.296605 
   19200    1247.2047    -24272.56   -25562.109   -190.01498   -278.10689   -821.22019    529.28214    41.648028    41.648028    83.296056 
   19300    1256.3227   -24272.255   -25571.232   -290.40556   -366.15257   -29.671415   -475.39268    41.647394    41.647394    83.294787 
   19400    1241.3833   -24271.893   -25555.424    135.92118   -296.05331    235.13986      468.677    41.646396    41.646396    83.292792 
   19500    1250.3691   -24271.411   -25564.233    137.87738   -288.34347    1015.5554   -313.57977    41.645853    41.645853    83.291705 
   19600    1264.4428   -24271.015   -25578.388   -250.22121   -931.04711    479.97965   -299.59617    41.645664    41.645664    83.291327 
   19700    1256.9732   -24270.716   -25570.366   -148.03336   -536.99234   -304.38689    397.27916    41.645677    41.645677    83.291355 
   19800    1250.7112   -24270.502   -25563.677    106.00597    -698.9707   -178.30184    1195.2905    41.645798    41.645798    83.291597 
   19900    1249.5931   -24270.319   -25562.338    69.366078    38.842836    609.26214   -440.00674    41.646403    41.646403    83.292806 
   20000    1250.3959   -24270.198   -25563.047    149.21067    414.93413    -149.0528    181.75067    41.647097    41.647097    83.294194 
   20100    1257.4082   -24270.179   -25570.278   -96.347374   -825.88214    441.99366     94.84636    41.647813    41.647813    83.295625 
   20200    1248.5367   -24270.316   -25561.243     26.20058    -41.51288   -594.90163    715.01625     41.64763     41.64763     83.29526 
   20300    1255.0164   -24270.535   -25568.162   -77.358485   -87.430593    118.26558   -262.91044    41.646843    41.646843    83.293687 
   20400    1251.4799   -24270.821   -25564.792    139.85813    631.12935   -307.88976    96.334803     41.64556     41.64556     83.29112 
   20500    1259.4083   -24271.167   -25573.335   -51.512974   -289.97171    92.080673    43.352118    41.644298    41.644298    83.288595 
   20600    1254.7321   -24271.528    -25568.86    98.813754    278.71432    244.58194     -226.855    41.643689    41.643689    83.287378 
   20700    1249.5106   -24271.926    -25563.86    47.386624    239.30659   -212.20669    115.05998    41.643755    41.643755     83.28751 
   20800    1246.3718   -24272.308   -25560.997    134.73732   -821.23875    627.89251    597.55822    41.644232    41.644232    83.288463 
   20900    1225.4532   -24272.567   -25539.627    582.19163   -58.940013    1233.7775    571.73743    41.645504    41.645504    83.291008 
   21000    1250.3668   -24272.712   -25565.531   -1.1571588   -998.15296   -16.411324    1011.0928    41.647303    41.647303    83.294607 
   21100    1255.3753   -24272.854   -25570.852   -326.42166   -168.41697   -595.93605   -214.91197    41.648813    41.648813    83.297626 
   21200    1251.3952   -24272.984   -25566.867   -84.877962   -1115.8677    348.95764    512.27618    41.649326    41.649326    83.298651 
   21300     1257.315   -24273.146   -25573.149   -350.57488   -577.36925   -726.93989    252.58451    41.648872    41.648872    83.297745 
   21400    1225.7856    -24273.38   -25540.783    528.87163    134.68545    1042.7696    409.15985    41.647273    41.647273    83.294546 
   21500    1255.7277   -24273.415   -25571.777   -49.805007    497.13946   -54.118799   -592.43568    41.646651    41.646651    83.293301 
   21600    1253.9071   -24273.358   -25569.838   -100.04811    -395.4126    69.996632    25.271629    41.646729    41.646729    83.293458 
   21700    1250.3552   -24273.252    -25566.06   -41.170777   -566.04061   -635.70109    1078.2294    41.647145    41.647145    83.294291 
   21800     1248.366   -24273.084   -25563.835    140.32655   -537.63493    476.83231    481.78226    41.647665    41.647665     83.29533 
   21900    1241.7528   -24272.868   -25556.781    230.91121   -380.26923    415.02528    657.97759     41.64835     41.64835      83.2967 
   22000    1251.2164   -24272.643   -25566.341    52.700135    356.33647    206.95611   -405.19217    41.648881    41.648881    83.297761 
   22100    1242.4824   -24272.402   -25557.069    45.078974    236.29724   -736.19766    635.13734    41.649463    41.649463    83.298925 
   22200    1238.7032   -24272.001   -25552.761    92.684342   -18.593523    630.39231   -333.74576    41.650664    41.650664    83.301328 
   22300    1249.3533   -24271.454   -25563.226   -231.52648    307.91919   -209.93705   -792.56159     41.65235     41.65235      83.3047 
   22400    1242.7193   -24270.905   -25555.817   -201.29399    110.34118    -259.4804   -454.74276    41.653202    41.653202    83.306404 
   22500    1242.6549   -24270.418   -25555.264   -57.321502   -64.478563    283.81179   -391.29774    41.652652    41.652652    83.305304 
   22600    1255.5741   -24270.045   -25568.248   -225.28499    190.32313   -614.39107   -251.78703    41.650899    41.650899    83.301798 
   22700    1236.9082   -24269.768   -25548.672    398.07275     791.3049   -442.74201    845.65535    41.648501    41.648501    83.297003 
   22800    1247.7811   -24269.585    -25559.73    241.53607    758.65168    -500.0601    466.01663    41.646288    41.646288    83.292577 
   22900    1241.8821   -24269.468   -25553.514    391.46328    1106.0986    561.32893   -493.03768     41.64451     41.64451     83.28902 
   23000     1246.056   -24269.317   -25557.679    169.60357     205.0578      642.776    -339.0231    41.644159    41.644159    83.288318 
   23100    1240.9716   -24269.225    -25552.33    367.02777    273.74988   -115.85182    943.18525    41.644348    41.644348    83.288695 
   23200    1250.7685   -24269.193   -25562.428    47.772212   -110.80209    364.36237   -110.24365    41.645186    41.645186    83.290371 
   23300    1258.4226   -24269.145   -25570.294   -199.39409    -7.501498   -439.92277     -150.758    41.646705    41.646705    83.293411 
   23400    1255.7214   -24269.103   -25567.458    64.658825   -348.61841    41.261961    501.33292    41.648433    41.648433    83.296865 
   23500    1240.3307   -24268.963   -25551.405    179.79713   -3.9453064    705.82398   -162.48728    41.650936    41.650936    83.301872 
   23600    1237.2859   -24268.781   -25548.075    107.39254    444.87404    207.20143   -329.89786     41.65306     41.65306    83.306119 
   23700    1258.7341   -24268.564   -25570.034   -455.62913   -334.45607   -758.79358   -273.63775    41.654376    41.654376    83.308753 
   23800     1233.926   -24268.313   -25544.133    218.14944    707.98014   -301.37932    247.84751    41.654828    41.654828    83.309656 
   23900     1255.492   -24268.045   -25566.164   -171.14718   -557.99078    474.32195    -429.7727    41.654796    41.654796    83.309592 
   24000    1241.3487   -24267.728   -25551.223   -39.640687   -92.359835   -155.88464    129.32241    41.654471    41.654471    83.308941 
   24100    1243.2921   -24267.416    -25552.92    171.65898    161.92734    87.848842    265.20077    41.653129    41.653129    83.306258 
   24200    1255.4642   -24267.189   -25565.278   -218.06864   -447.11321   -169.66472   -37.427989    41.650875    41.650875    83.301751 
   24300     1244.642   -24267.004   -25553.904    278.82867    581.04535    783.06466     -527.624    41.648447    41.648447    83.296895 
   24400    1229.4724   -24266.855    -25538.07    643.63171   -597.57102    649.94219     1878.524    41.646385    41.646385    83.292771 
   24500    1257.8209   -24266.672   -25567.199   -63.035803    179.00659   -548.36823    180.25423    41.645218    41.645218    83.290436 
   24600    1236.3426   -24266.517   -25544.836    745.91706    963.44309    873.61541    400.69268    41.644948    41.644948    83.289896 
   24700    1253.2075   -24266.234    -25561.99   -84.746648    179.37017   -472.77733    39.167222    41.646899    41.646899    83.293798 
   24800    1254.2214   -24265.967   -25562.772   -27.524791     201.3398   -236.98199   -46.932182    41.649247    41.649247    83.298495 
   24900    1236.1192   -24265.668   -25543.756    380.10618    171.72362    71.540796    897.05412    41.652202    41.652202    83.304404 
   25000     1255.725   -24265.321   -25563.681   -279.60164   -135.74573     171.3884   -874.44759    41.655572    41.655572    83.311143 
   25100    1238.0726   -24265.033   -25545.141    124.20238   -252.29145    916.59367   -291.69509    41.658025    41.658025     83.31605 
   25200    1242.5518   -24264.624   -25549.363   -333.80627   -753.42094   -258.52782    10.529959    41.659926    41.659926    83.319853 
   25300    1252.0949   -24264.146   -25558.752   -375.58275   -238.24603   -87.165205   -801.33702    41.660388    41.660388    83.320777 
   25400    1246.4178   -24263.619   -25552.355   -282.43375   -979.02344    106.52987    25.192309    41.659645    41.659645    83.319291 
   25500    1245.0031   -24263.098   -25550.371   -266.25277   -790.36508    181.56585   -189.95909    41.657697    41.657697    83.315395 
   25600    1253.6535   -24262.464   -25558.681   -116.81584   -200.91071   -230.75442    81.217598    41.655968    41.655968    83.311935 
   25700    1249.1257   -24261.858   -25553.394   -5.7326545    705.37011    35.288271   -757.85635    41.654326    41.654326    83.308651 
   25800    1247.2244   -24261.395   -25550.965    173.23978    598.09565   -210.94222     132.5659    41.652302    41.652302    83.304604 
   25900    1252.0141   -24261.054   -25555.576    137.02626   -567.95185    1163.3605   -184.32982    41.650403    41.650403    83.300806 
   26000    1245.1664   -24260.775   -25548.217    302.07135    573.04856   -480.98821     814.1537    41.649496    41.649496    83.298991 
   26100    1254.3974   -24260.417   -25557.403    124.98141    110.05847    483.42626    -218.5405    41.650593    41.650593    83.301187 
   26200    1258.1503   -24260.029   -25560.896   -96.951557    476.65033   -1005.1182    237.61319    41.652871    41.652871    83.305742 
   26300    1237.6546   -24259.685    -25539.36    208.85699   -87.923659    1381.5822   -667.08754    41.655355    41.655355     83.31071 
   26400    1240.0183   -24259.279   -25541.398    270.57718     263.9844    239.78289    307.96424     41.65808     41.65808    83.316159 
   26500     1237.815   -24258.874   -25538.715    163.96045    349.98911    584.23275   -442.34051    41.660417    41.660417    83.320834 
   26600    1244.0059   -24258.465   -25544.707   -53.942554    72.871934     458.3021   -693.00169    41.662104    41.662104    83.324208 
   26700    1245.9055    -24258.09   -25546.297   -284.82245   -419.30379   -569.06733    133.90377    41.662854    41.662854    83.325708 
   26800    1251.9405   -24257.733   -25552.179   -374.44563   -621.32276   -767.47651    265.46237    41.662371    41.662371    83.324742 
   26900    1246.2196   -24257.448   -25545.979   -51.402381   -292.18956    438.69897   -300.71656    41.660564    41.660564    83.321128 
   27000    1268.0482   -24257.258   -25568.358   -469.70745   -540.93778   -288.12069   -580.06389    41.658122    41.658122    83.316245 
   27100    1241.3886   -24257.181   -25540.717    362.49844    397.42846   -89.974452     780.0413    41.654976    41.654976    83.309951 
   27200    1259.8233   -24257.118   -25559.715    22.578889   -294.44776   -215.99844    578.18287    41.652388    41.652388    83.304777 
   27300    1253.0266   -24257.134   -25552.703    352.24143    281.45029    290.06178    485.21222     41.65046     41.65046     83.30092 
   27400    1258.0678   -24257.283   -25558.065   -43.821392    365.50089   -507.40602    10.440955    41.649318    41.649318    83.298635 
   27500    1255.2435   -24257.427   -25555.288    243.98603    843.45836     21.90755   -133.40782    41.649105    41.649105    83.298209 
   27600    1258.3777   -24257.605   -25558.707    163.96508    464.75987    124.94541   -97.810041     41.65031     41.65031    83.300621 
   27700    1242.7299   -24257.901   -25542.824    321.96503    502.49974     317.2881    146.10725    41.652158    41.652158    83.304317 
   27800    1252.2812   -24258.211   -25553.009    78.734248    61.296582   -649.67885    824.58502    41.654381    41.654381    83.308763 
   27900    1256.2145   -24258.391   -25557.257   -169.76095    1195.9877   -1179.8944   -525.37621    41.657387    41.657387    83.314775 
   28000     1250.872   -24258.446   -25551.788   -53.355218   -699.81797   -467.04842    1006.8007    41.660623    41.660623    83.321246 
   28100    1245.3153   -24258.448   -25546.044   -144.19844    42.961541     -156.955   -318.60188    41.663486    41.663486    83.326972 
   28200    1256.7595   -24258.469   -25557.898   -599.57441   -924.51642   -399.40128   -474.80553    41.664842    41.664842    83.329685 
   28300    1248.0614   -24258.476   -25548.912   -368.23871   -409.39565   -492.74404   -202.57645    41.664324    41.664324    83.328648 
   28400    1257.4519   -24258.368   -25558.513   -400.72843   -1013.0506   -400.62594    211.49122    41.662683    41.662683    83.325365 
   28500    1248.1652   -24258.267    -25548.81   -226.61929   -83.800332   -162.86276   -433.19478    41.660175    41.660175    83.320351 
   28600    1273.8597    -24258.15    -25575.26   -773.31462   -1359.2689   -895.30959   -65.365379    41.657233    41.657233    83.314466 
   28700    1258.4991   -24258.162   -25559.389    57.751098    116.61738    44.567346    12.068564    41.653319    41.653319    83.306638 
   28800    1251.7739   -24258.218   -25552.492    289.89349    608.07096    689.73513   -428.12564     41.65023     41.65023     83.30046 
   28900    1236.0853   -24258.287   -25536.339     635.1857    446.21833    949.16093    510.17785    41.648904    41.648904    83.297808 
   29000    1240.5678   -24258.217   -25540.904    490.91048    743.24361    508.56325    220.92456    41.649591    41.649591    83.299182 
   29100    1255.9512    -24258.08   -25556.673    140.17678    143.82044    47.807934    228.90198     41.65206     41.65206    83.304121 
   29200    1244.1798   -24257.994   -25544.416    179.90413    100.78044    103.09254    335.83941    41.655037    41.655037    83.310074 
   29300    1240.7069    -24257.96   -25540.791    155.74853   -93.043418    64.409897    495.87911    41.658089    41.658089    83.316177 
   29400     1234.649   -24257.829   -25534.397    294.63179   -158.55678    271.01235    771.43978    41.661427    41.661427    83.322855 
   29500     1240.285   -24257.619   -25540.014   -53.877756   -340.09568   -598.10545    776.56786    41.664418    41.664418    83.328836 
   29600    1240.7471   -24257.386   -25540.259   -341.73238   -570.04878   -401.67925   -53.469113    41.666254    41.666254    83.332508 
   29700    1246.5614   -24257.087   -25545.971   -386.54649    262.08053   -1003.7701   -417.94993    41.666198    41.666198    83.332396 
   29800     1243.179   -24256.732   -25542.119   -116.91582    72.691386   -893.34994    469.91111    41.664582    41.664582    83.329164 
   29900    1245.5383   -24256.292   -25544.119    -297.1979   -381.42642    246.82494   -756.99221    41.662215    41.662215    83.324429 
   30000    1244.9167   -24255.838   -25543.022    87.678951   -52.979581   -55.750208    371.76664    41.659218    41.659218    83.318435 
   30100    1253.0324   -24255.411   -25550.986   -119.80065   -522.68208    305.18288   -141.90274    41.656047    41.656047    83.312094 
   30200    1231.9092   -24255.077   -25528.812    652.74389    470.13533    450.48371    1037.6126    41.653051    41.653051    83.306102 
   30300    1264.3129   -24254.757   -25561.995   -199.84155   0.34822337   -638.49929    38.626413    41.651542    41.651542    83.303084 
   30400    1249.4436   -24254.593   -25546.458    346.68302  -0.11343711    354.93714    685.22535    41.650472    41.650472    83.300944 
   30500    1236.5164    -24254.36   -25532.859    705.42656    193.04442    1606.8768    316.35845    41.651374    41.651374    83.302749 
   30600    1242.8371     -24254.1   -25539.134    429.86044    197.46877    215.90082    876.21173    41.654353    41.654353    83.308707 
   30700    1247.5635   -24253.784   -25543.705    71.546198      534.194   -671.91031     352.3549    41.658749    41.658749    83.317497 
   30800    1245.6563   -24253.386   -25541.334   -27.283542    396.06897   -172.91008   -305.00951    41.663676    41.663676    83.327351 
   30900    1248.1266   -24252.957    -25543.46   -420.65524   -766.56202    -1019.982    524.57826    41.668055    41.668055     83.33611 
   31000    1263.2005   -24252.586   -25558.674    -520.8225    15.777105    -774.3658    -803.8788     41.67034     41.67034    83.340679 
   31100    1247.4111   -24252.331   -25542.094   -519.77882    56.881939   -477.42082   -1138.7976    41.670268    41.670268    83.340536 
   31200    1251.9066   -24252.215   -25546.626   -308.67958    13.059588   -611.42904    -327.6693    41.667641    41.667641    83.335283 
   31300    1237.2048   -24252.083   -25531.294    413.16643    1023.6912    692.06499   -476.25695    41.663835    41.663835     83.32767 
   31400    1251.7759   -24251.889   -25546.165    120.43972   -680.97012    555.41852    486.87076    41.660771    41.660771    83.321542 
   31500    1252.2238   -24251.688   -25546.427    21.235891   -397.81911    4.1743905     457.3524    41.658486    41.658486    83.316972 
   31600    1250.9575   -24251.561   -25544.991    319.46228    58.471047   -10.217304    910.13311    41.656356    41.656356    83.312712 
   31700    1256.5036   -24251.432   -25550.596     126.0563   -545.14221   -12.709124    936.02024    41.655348    41.655348    83.310696 
   31800    1244.5641   -24251.243   -25538.062    358.25441   -790.81768    1050.1647    815.41622    41.656022    41.656022    83.312044 
   31900    1267.2277   -24251.088    -25561.34   -410.25874    65.745082   -327.90116   -968.62014    41.657709    41.657709    83.315418 
   32000    1264.2728   -24250.993   -25558.191   -437.39054   -419.10841   -184.98037   -708.08283    41.659312    41.659312    83.318624 
   32100    1241.2207   -24250.903   -25534.266    278.31646    833.91665    148.22531   -147.19257    41.660857    41.660857    83.321714 
   32200    1232.9845    -24250.78   -25525.626    349.41157    1070.4182    149.89606    -172.0795    41.662922    41.662922    83.325843 
   32300     1240.405   -24250.524   -25533.043    14.878144   -655.37698     577.7714    122.24001    41.665691    41.665691    83.331383 
   32400    1227.5691   -24250.262   -25519.509    308.96425    42.490661    491.74403    392.65806    41.667647    41.667647    83.335293 
   32500    1248.0609   -24249.803   -25540.238   -369.67413     214.2581   -870.87055   -452.40994    41.669509    41.669509    83.339019 
   32600    1241.1531    -24249.31   -25532.602   -285.31183   -268.02223   -711.36271    123.44945    41.669576    41.669576    83.339153 
   32700    1258.9479   -24248.741   -25550.432   -640.72903   -363.97293   -1295.1632   -263.05096    41.668291    41.668291    83.336582 
   32800    1251.7996   -24248.187   -25542.487   -193.17284   -378.60996    461.74655   -662.65511     41.66583     41.66583     83.33166 
   32900    1233.7788   -24247.658   -25523.326    416.64028     83.07578    699.57131    467.27376    41.663036    41.663036    83.326072 
   33000    1257.4851   -24247.053   -25547.232   -142.97643    5.9747067    -282.0076   -152.89638    41.661216    41.661216    83.322432 
   33100    1249.8583   -24246.448   -25538.741    112.40178   -820.19532    1234.7371   -77.336441    41.660114    41.660114    83.320229 
   33200    1255.8494   -24245.871   -25544.359    112.99807    505.43873   -518.81786    352.37335    41.659994    41.659994    83.319988 
   33300    1253.8638   -24245.367   -25541.802    285.11498    218.26684     400.9151    236.16302     41.66063     41.66063     83.32126 
   33400    1248.9147   -24244.958   -25536.275    135.21722   -752.41748   -241.19578    1399.2649    41.662063    41.662063    83.324126 
   33500    1251.9285   -24244.595   -25539.029    86.614697   -591.48284   -79.888275     931.2152    41.664074    41.664074    83.328148 
   33600    1253.6803   -24244.231   -25540.476   -199.30937   -800.78268    490.91913   -288.06457    41.666536    41.666536    83.333073 
   33700    1235.7765   -24243.966     -25521.7    232.91328    100.95328    468.66405    129.12253    41.668563    41.668563    83.337126 
   33800    1271.5861   -24243.649   -25558.408   -701.56941   -704.69796   -894.39219   -505.61809    41.670493    41.670493    83.340986 
   33900     1242.999   -24243.468   -25528.669   -35.330858    691.84889   -887.12962    89.288151    41.670513    41.670513    83.341025 
   34000    1274.1832    -24243.31   -25560.754   -746.90655   -987.82119   -39.113663   -1213.7848    41.669527    41.669527    83.339055 
   34100    1238.3223   -24243.232   -25523.598    247.63641    381.97677    263.05757    97.874891    41.667527    41.667527    83.335054 
   34200    1247.1227   -24243.134   -25532.599    12.437822    84.409027   -675.51615    628.42059    41.665599    41.665599    83.331198 
   34300    1257.3935   -24243.026    -25543.11   -128.95826    170.08557   -420.31234   -136.64801    41.663649    41.663649    83.327299 
   34400    1247.8566   -24242.946   -25533.169     261.1328    857.75959   -536.44541    462.08423    41.661791    41.661791    83.323582 
   34500     1262.894   -24242.953   -25548.724    126.13052   -82.190387      222.943    237.63895    41.660514    41.660514    83.321029 
   34600    1239.4391   -24243.083   -25524.603    546.04393    703.44399    71.098092     863.5897    41.659956    41.659956    83.319913 
   34700    1260.0688   -24243.202   -25546.052    12.265594   -46.620711   -498.66676    582.08426    41.660678    41.660678    83.321356 
   34800    1254.3317   -24243.242    -25540.16   -33.643973   -609.50938    257.12435    251.45311    41.663098    41.663098    83.326196 
   34900    1249.7929   -24243.292   -25535.518   -4.3053473    50.204117   -564.30024    501.18008    41.666067    41.666067    83.332134 
   35000    1245.8679    -24243.41   -25531.577    206.90342   -357.34588    82.065717    895.99042    41.668796    41.668796    83.337593 
   35100    1236.6594   -24243.481   -25522.127    153.49977    522.28058    176.88897   -238.67022    41.671728    41.671728    83.343457 
   35200    1252.0258   -24243.561   -25538.095   -282.79871   -383.39558   -96.991705   -368.00885    41.673597    41.673597    83.347193 
   35300    1247.4196   -24243.584   -25533.356   -141.12704   -35.289871   -728.41277    340.32151    41.674425    41.674425     83.34885 
   35400    1253.2465   -24243.459   -25539.255   -205.20807    82.828199   -612.88703    -85.56538    41.674771    41.674771    83.349541 
   35500    1243.1833   -24243.349    -25528.74   -191.26872    -430.1321   -991.48498    847.81092     41.67411     41.67411     83.34822 
   35600    1252.5176   -24243.233   -25538.276   -319.84516    26.128083   -869.33992   -116.32363    41.672099    41.672099    83.344199 
   35700     1243.299   -24243.196   -25528.708   -38.813955   -34.305645    -130.0073    47.871085     41.66842     41.66842    83.336839 
   35800    1253.4025    -24243.18   -25539.138   -5.2451509   -713.06988   -160.80406    858.13849    41.664262    41.664262    83.328524 
   35900    1244.8761   -24243.221   -25530.363    454.92576    329.90168   -77.533456    1112.4091     41.66053     41.66053     83.32106 
   36000    1258.4551    -24243.27   -25544.452    248.19238    787.24811   -678.87242    636.20146    41.658433    41.658433    83.316866 
   36100    1239.0613   -24243.377   -25524.507    835.59209    865.65709    1445.1246    195.99462    41.657877    41.657877    83.315755 
   36200    1256.8373   -24243.477   -25542.986    231.80235    296.22279    373.43149    25.752762    41.659568    41.659568    83.319135 
   36300     1239.965   -24243.691   -25525.755    417.09494    789.70032    316.35962     145.2249    41.662181    41.662181    83.324362 
   36400    1247.3795    -24243.89   -25533.621    339.95621    667.19269    15.501938      337.174    41.665673    41.665673    83.331346 
   36500    1264.5222   -24244.199   -25551.654   -494.04739   -407.53568   -171.67512   -902.93136    41.668921    41.668921    83.337842 
   36600    1252.2845   -24244.687   -25539.489   -85.794518    540.54324   -394.81399    -403.1128    41.670225    41.670225     83.34045 
   36700    1243.3293   -24245.233   -25530.776   -194.63586    289.62633   -24.746282   -848.78763    41.670253    41.670253    83.340506 
   36800    1255.5427   -24245.679   -25543.849   -333.68981    -735.1428    139.01952   -404.94615    41.669029    41.669029    83.338059 
   36900    1247.9672   -24246.106   -25536.445    60.522701    675.49842    -30.27679   -463.65352    41.666532    41.666532    83.333063 
   37000    1245.2242   -24246.586   -25534.088    167.41731    447.45053    523.38659    -468.5852    41.663147    41.663147    83.326294 
   37100    1241.3473   -24246.921   -25530.414    353.79649    1108.1615    29.142708   -75.914744    41.660563    41.660563    83.321127 
   37200    1256.8091   -24247.262   -25546.742    134.74387     413.1112   -150.06148     141.1819    41.658424    41.658424    83.316847 
   37300     1234.772   -24247.626   -25524.321    737.83882    113.54238    949.18693    1150.7871    41.656983    41.656983    83.313966 
   37400    1237.8984   -24247.911   -25527.838    509.46816    366.16028    409.84481     752.3994    41.657454    41.657454    83.314907 
   37500    1259.2123   -24248.125    -25550.09   -79.965349   -869.94714    404.46294    225.58815    41.659119    41.659119    83.318238 
   37600    1233.6281   -24248.411   -25523.923    427.71647   -189.36198    557.94201    914.56937    41.660984    41.660984    83.321968 
   37700    1233.2411   -24248.556   -25523.668     413.9455    130.88237    83.062799    1027.8913    41.664041    41.664041    83.328081 
   37800    1244.1458   -24248.446   -25534.833   -140.38458    417.72778   -163.36716   -675.51434    41.668042    41.668042    83.336084 
   37900    1235.7972   -24248.128   -25525.882   -85.927898    -50.28294    353.40543   -560.90618    41.671859    41.671859    83.343717 
   38000     1247.906    -24247.56   -25537.834    -532.6095   -17.517285   -1019.3705   -560.94072    41.675202    41.675202    83.350403 
   38100    1231.4036   -24247.023   -25520.235   -158.15772   -13.727638   -439.03553   -21.709991    41.675967    41.675967    83.351935 
   38200    1226.2498   -24246.373   -25514.257     107.7337   -581.34715   -9.2921807    913.84043    41.675238    41.675238    83.350475 
   38300     1248.661   -24245.533   -25536.588   -333.55349   -22.794458   -685.96794   -291.89807    41.674249    41.674249    83.348498 
   38400    1235.6581   -24244.654   -25522.265    220.94056    811.46903   -123.83752   -24.809819     41.67246     41.67246     83.34492 
   38500     1247.834   -24243.759    -25533.96   -109.16658   -125.65169   -108.99042   -92.857631    41.670384    41.670384    83.340767 
   38600    1237.1901   -24243.025    -25522.22    340.65834    1075.6657    193.78783   -247.47854    41.667397    41.667397    83.334794 
   38700    1238.3787   -24242.232   -25522.656    246.36142    207.56849    999.01733   -467.50155    41.665523    41.665523    83.331046 
   38800    1241.3993    -24241.29   -25524.837      473.807     157.1643    1082.2244    182.03231    41.665324    41.665324    83.330648 
   38900     1239.755   -24240.242   -25522.089     364.3811    -421.4015    540.18252    974.36228    41.667317    41.667317    83.334634 
   39000    1239.2415   -24239.212   -25520.528    199.71421     69.60833    792.06663   -262.53234     41.67047     41.67047     83.34094 
   39100    1237.1281   -24238.165   -25517.296    145.75262   -20.001122   -243.66383    700.92281    41.674219    41.674219    83.348437 
   39200    1231.5876   -24237.058   -25510.461    28.182726    215.28507   -131.31803   0.58113623     41.67801     41.67801    83.356019 
   39300    1241.0027   -24235.927   -25519.064   -85.673798   -119.88215   -398.69174    261.55249    41.681221    41.681221    83.362443 
   39400    1242.7863   -24234.779    -25519.76   -272.83184    209.59435   -498.36909   -529.72078    41.683727    41.683727    83.367453 
   39500    1257.4285   -24233.717   -25533.838   -565.95173   -679.54805   -355.28244   -663.02469    41.684454    41.684454    83.368908 
   39600    1232.1088   -24232.908   -25506.849    94.385902    -623.1297    66.325708    839.96169    41.682461    41.682461    83.364922 
   39700    1254.3538    -24232.08   -25529.021   -555.94237   -1187.5829   -815.99661    335.75242    41.679947    41.679947    83.359893 
   39800    1239.2601   -24231.293   -25512.628   -6.2762615   -3.5511945    326.92761    -342.2052     41.67662     41.67662     83.35324 
   39900    1246.9783   -24230.533   -25519.848    152.62923    452.05074   -290.01079    295.84773    41.673053    41.673053    83.346106 
   40000    1253.8704   -24229.802   -25526.244    211.21368   -136.96295    335.00272    435.60127    41.670396    41.670396    83.340791 
   40100    1257.1822   -24229.197   -25529.063    132.91741    106.09814   -52.459691    345.11378    41.669088    41.669088    83.338175 
   40200    1257.9121    -24228.71   -25529.331    98.960015   -4.9306142    502.82154   -201.01088     41.66945     41.66945    83.338899 
   40300    1240.9788   -24228.245   -25511.358    346.90676     390.1857    549.12058    101.41401    41.671618    41.671618    83.343236 
   40400    1249.3118    -24227.85   -25519.578    104.83429   -291.33701    264.83367     341.0062    41.674672    41.674672    83.349344 
   40500    1251.4003    -24227.41   -25521.297   -98.461484   -139.08249    113.56197   -269.86394    41.678597    41.678597    83.357194 
   40600    1257.1484   -24227.031   -25526.862   -347.33499     -771.704   -218.37364   -51.927333    41.681961    41.681961    83.363922 
   40700    1253.4475   -24226.729   -25522.733   -388.94429    -530.9252    419.56712   -1055.4748    41.684035    41.684035     83.36807 
   40800    1251.8677    -24226.51   -25520.881   -177.18741   -771.11553    213.71301    25.840274    41.684802    41.684802    83.369605 
   40900    1247.0407   -24226.333   -25515.713   -57.975931   -203.77504    55.320435   -25.473187     41.68485     41.68485      83.3697 
   41000    1248.8013   -24226.137   -25517.338    -144.7434    902.44712   -341.72414   -994.95319    41.684367    41.684367    83.368733 
   41100    1244.2227   -24225.945   -25512.412   -161.97278   -552.81699   -314.07023    380.96889     41.68312     41.68312     83.36624 
   41200    1260.3002     -24225.7    -25528.79    -339.8015   -671.70835   -264.08845   -83.607693    41.681383    41.681383    83.362766 
   41300    1245.4909    -24225.45   -25513.227    154.41949    296.11434    245.11737   -77.973249     41.67942     41.67942    83.358841 
   41400    1251.2747   -24225.264   -25519.022    -42.46651   -417.88083   -180.69208    471.17338    41.677412    41.677412    83.354824 
   41500    1259.9048    -24225.11   -25527.791   -60.894837   -943.76078    146.59271    614.48356    41.675741    41.675741    83.351483 
   41600    1248.1995    -24225.08   -25515.658    368.72415    657.35143    20.636484    428.18455    41.674441    41.674441    83.348883 
   41700    1251.4102   -24225.216   -25519.114    108.53221    -353.3484     785.3175   -106.37247    41.673713    41.673713    83.347426 
   41800    1245.7479   -24225.345   -25513.389    341.87367   -30.912128     71.52782    985.00533    41.674114    41.674114    83.348228 
   41900     1250.736   -24225.375   -25518.576    55.275414    259.60838   -441.73657    347.95443    41.676145    41.676145     83.35229 
   42000    1260.4923   -24225.393   -25528.681    -345.9046   -59.908874   -454.51031   -523.29461    41.678834    41.678834    83.357667 
   42100    1242.4646   -24225.361    -25510.01    207.77234     587.4013    20.382755    15.532972    41.681418    41.681418    83.362835 
   42200    1247.4858   -24225.266   -25515.107   -79.197596   -874.15101    633.39718    3.1610424    41.684186    41.684186    83.368371 
   42300    1236.5329   -24225.132   -25503.647    211.45218    857.60912   -530.72921    307.47664    41.686205    41.686205    83.372411 
   42400    1263.3948   -24224.931   -25531.221   -879.77552   -746.32154   -722.41199    -1170.593    41.687482    41.687482    83.374963 
   42500      1259.59   -24224.806   -25527.161   -615.25054   -216.36112   -412.42173   -1216.9688    41.686567    41.686567    83.373135 
   42600    1256.5933    -24224.75   -25524.007   -386.81803   -452.07389    301.51478    -1009.895    41.683692    41.683692    83.367384 
   42700    1267.3183   -24224.856   -25535.202   -530.65653   -695.68945   -437.35944   -458.92071    41.679264    41.679264    83.358528 
   42800    1249.4092    -24225.07   -25516.899    376.84638    905.06852    766.66925   -541.19863    41.674369    41.674369    83.348738 
   42900    1265.4434   -24225.298   -25533.706   -12.145896   -304.26343    -171.7695    439.59524    41.670958    41.670958    83.341917 
   43000    1252.3447   -24225.564   -25520.428    460.12882     465.1601    412.01811    503.20825    41.668925    41.668925     83.33785 
   43100    1254.7415    -24225.91   -25523.252    444.83764    435.30634    339.00201    560.20456     41.66866     41.66866     83.33732 
   43200    1263.3763   -24226.395   -25532.665    128.61269   -566.28221    345.09633    607.02395    41.669626    41.669626    83.339252 
   43300    1267.5794   -24226.964    -25537.58   -272.94404   -21.268046   -168.87391   -628.69016    41.671538    41.671538    83.343076 
   43400    1258.3303   -24227.697    -25528.75   -134.70691    49.608675   -459.39126     5.661861    41.673096    41.673096    83.346193 
   43500    1247.6621   -24228.608   -25518.631    361.70988    -266.1197    726.77148    624.47785    41.673819    41.673819    83.347638 
   43600    1263.1177   -24229.494   -25535.497    -51.59541     207.3311   -415.41497    53.297638    41.675212    41.675212    83.350423 
   43700    1234.4463   -24230.315   -25506.673     247.5918    193.40559    848.56917   -299.19936    41.677051    41.677051    83.354101 
   43800    1258.6017   -24230.976   -25532.309   -400.65765   -1378.6004    143.31559    33.311823    41.678897    41.678897    83.357794 
   43900    1247.8703   -24231.677   -25521.915   -118.64236     218.0358   -59.417481   -514.54539    41.679228    41.679228    83.358456 
   44000    1255.3135   -24232.298   -25530.232   -314.45605   -656.98268    156.23032   -442.61578    41.678724    41.678724    83.357448 
   44100    1252.0941   -24232.866   -25527.471   -61.772009   -185.82864    5.4888316   -4.9762181    41.677274    41.677274    83.354549 
   44200    1238.0744   -24233.286   -25513.396    456.10503   -78.079955    517.88807    928.50696    41.675768    41.675768    83.351536 
   44300    1260.6111   -24233.645   -25537.056   -167.60697   -154.43757   -619.98463    271.60129    41.674687    41.674687    83.349375 
   44400    1251.8428   -24234.046   -25528.391   -6.7929135    880.08658   -576.55913   -323.90618     41.67324     41.67324     83.34648 
   44500    1258.2809   -24234.442   -25535.444   -117.47881    77.237075   -315.21603   -114.45746    41.671781    41.671781    83.343562 
   44600    1249.0476     -24234.8   -25526.255    42.417671   -368.59415    190.13754    305.70962    41.670588    41.670588    83.341176 
   44700    1248.5099   -24235.098   -25525.997    256.51164    811.07644   -472.48939    430.94788    41.670001    41.670001    83.340002 
   44800    1243.2981   -24235.426   -25520.936    289.43516    70.395636   -328.95723    1126.8671    41.669961    41.669961    83.339923 
   44900    1248.8605   -24235.678    -25526.94   -16.696406    661.89552   -316.54777   -395.43697    41.670592    41.670592    83.341183 
   45000    1249.5221   -24235.826   -25527.772   -105.20775    319.49014   -46.177411   -588.93597    41.671842    41.671842    83.343685 
   45100    1242.1424   -24235.884     -25520.2    400.21724      927.056    402.70206   -129.10634    41.673367    41.673367    83.346733 
   45200     1249.198   -24235.852   -25527.463   -162.26424   -428.07855   -617.77781    559.06363    41.675698    41.675698    83.351396 
   45300    1245.1827   -24235.791    -25523.25   -177.98067   -507.72874   -176.29118    150.07792    41.677561    41.677561    83.355122 
   45400    1261.3067   -24235.739   -25539.869    -486.8908   -190.47917   -591.76707   -678.42615    41.678279    41.678279    83.356558 
   45500    1236.5697   -24235.729   -25514.283    115.25087    885.59904   -531.08951    -8.756905    41.677494    41.677494    83.354989 
   45600     1235.603   -24235.597   -25513.151     372.2525     1314.496   -267.20175     69.46328    41.676301    41.676301    83.352601 
   45700     1244.449   -24235.434   -25522.134    -113.3771    296.98363   -585.11794   -51.997002    41.675088    41.675088    83.350176 
   45800    1251.5994    -24235.26   -25529.353   -50.136519   -30.267596    165.56561   -285.70758    41.673386    41.673386    83.346771 
   45900     1242.377    -24235.12   -25519.678    213.06145    982.47656   -38.766908   -304.52532    41.671803    41.671803    83.343606 
   46000    1250.4604   -24234.924    -25527.84    274.38357    434.62298    20.487427    368.04029    41.670928    41.670928    83.341856 
   46100    1258.1906    -24234.93   -25535.838   -76.856748    639.37596   -64.438925   -805.50728    41.669972    41.669972    83.339944 
   46200    1270.4666   -24235.094   -25548.695   -383.64783   -429.50831   -590.16608   -131.26911    41.668954    41.668954    83.337908 
   46300    1250.5817   -24235.286   -25528.328    395.35328    202.69203   -6.7397898    990.10761    41.668103    41.668103    83.336206 
   46400    1238.0292   -24235.422   -25515.485    440.96654    451.42221     756.0528     115.4246    41.668733    41.668733    83.337466 
   46500    1251.4265   -24235.498   -25529.412    194.68829   -342.54963    916.44352    10.170969    41.670607    41.670607    83.341215 
   46600     1263.618   -24235.648   -25542.168   -364.90763   -804.76466   -59.447821   -230.51041    41.672788    41.672788    83.345577 
   46700    1257.2043   -24235.931   -25535.819   -248.45472   -680.66567    8.9359107   -73.634399    41.673918    41.673918    83.347837 
   46800    1247.3846   -24236.312   -25526.048   -18.589476   -304.01024   -55.851496     304.0933    41.673809    41.673809    83.347617 
   46900    1250.4947    -24236.67   -25529.622   -50.676937    106.75862   -315.61128    56.821846    41.673031    41.673031    83.346061 
   47000    1267.8094   -24236.989   -25547.843   -631.05137   -415.63084   -898.95679    -578.5665    41.671833    41.671833    83.343665 
   47100    1254.7879   -24237.271   -25534.662    38.298783    128.82127      134.001   -147.92592    41.670227    41.670227    83.340455 
   47200    1263.6684   -24237.564   -25544.136   -460.76218   -407.39188    410.30107   -1385.1957    41.668904    41.668904    83.337809 
   47300    1241.9824   -24237.925   -25522.075    207.80159    374.55273    306.12685   -57.274797    41.666867    41.666867    83.333734 
   47400    1252.5271   -24238.205   -25533.258     141.2564    170.64315   -60.764994    313.89103    41.665618    41.665618    83.331236 
   47500    1249.2976   -24238.446    -25530.16     265.1163    1046.7086    77.391274     -328.751    41.665535    41.665535    83.331069 
   47600    1253.0837   -24238.581    -25534.21   -15.252758    816.51331   -436.13807   -426.13352    41.666902    41.666902    83.333804 
   47700    1241.4258   -24238.722   -25522.296    231.53292    614.39614    16.470612    63.732003    41.668802    41.668802    83.337605 
   47800    1259.0018   -24238.905   -25540.653   -154.59471    153.62392   -829.99151    212.58346    41.670829    41.670829    83.341658 
   47900    1255.2713   -24239.049   -25536.939   -333.54195   -381.55436   -567.30788   -51.763605    41.672672    41.672672    83.345345 
   48000    1249.9066   -24239.118   -25531.462   -141.41158   -244.07312   -46.265035   -133.89658    41.674053    41.674053    83.348105 
   48100    1239.7144   -24239.029   -25520.834    181.01166   -258.39266    847.43976   -46.012128    41.675502    41.675502    83.351005 
   48200    1242.8419   -24238.812   -25523.851   -21.052359    3.3692201    525.11324   -591.63954    41.676875    41.676875    83.353751 
   48300    1238.6909   -24238.445   -25519.192   -70.589984   -345.55956    120.73203    13.057574     41.67774     41.67774     83.35548 
   48400    1241.9834   -24237.888   -25522.039   -388.16462   -549.31926   -243.17501    -371.9996    41.678287    41.678287    83.356574 
   48500     1241.191   -24237.197   -25520.529   -93.208177   -1093.8251    283.64409     530.5565    41.678034    41.678034    83.356067 
   48600    1252.7672   -24236.447   -25531.748    -219.1532   -862.99159    311.78793   -106.25592    41.677482    41.677482    83.354963 
   48700     1236.093   -24235.629   -25513.689    253.34614   -11.782774    1381.8126   -609.99145    41.677004    41.677004    83.354008 
   48800    1247.8026   -24234.841   -25525.009   -2.5728333   -686.67131     108.5648    570.38801    41.676508    41.676508    83.353016 
   48900    1255.6875   -24234.005   -25532.325    -278.6874   -161.31301   -78.192937   -596.55626    41.676563    41.676563    83.353126 
   49000    1246.4987   -24233.209   -25522.029    13.362513    706.51892   -131.82804   -534.60334    41.676395    41.676395    83.352791 
   49100    1255.4717   -24232.383    -25530.48   -234.64866    23.547272   -13.498797   -713.99446    41.676603    41.676603    83.353205 
   49200    1264.6315   -24231.628   -25539.196   -513.02772   -1170.7125   -481.47406    113.10344    41.676384    41.676384    83.352768 
   49300    1254.4157   -24231.005    -25528.01    -47.31575    -124.8261     315.9279   -333.04905    41.675496    41.675496    83.350991 
   49400    1264.4245   -24230.315   -25537.669   -439.44032    71.814799   -392.36245    -997.7733    41.675791    41.675791    83.351581 
   49500    1224.5201    -24229.61   -25495.705    783.01553     1221.994    511.36653    615.68602    41.676736    41.676736    83.353471 
   49600    1241.5614   -24228.749   -25512.463   -18.809633    699.88283   -282.47317   -473.83857    41.679527    41.679527    83.359054 
   49700    1254.0894   -24227.944   -25524.612    -217.9293   -60.959261   -361.01471   -231.81394    41.681776    41.681776    83.363551 
   49800    1232.0638   -24227.247   -25501.142    320.95477    344.72326   -387.17078    1005.3118    41.683179    41.683179    83.366358 
   49900    1239.8594   -24226.636   -25508.591   -41.896161   -357.15906     211.2893    20.181282    41.683813    41.683813    83.367626 
   50000    1253.3862   -24225.988   -25521.929   -284.58474   -634.44656    102.94105    -322.2487     41.68401     41.68401     83.36802 
Loop time of 1433.5 on 1 procs for 50000 steps with 8000 atoms

Pair  time (%) = 1293.25 (90.2162)
Neigh time (%) = 99.2373 (6.92273)
Comm  time (%) = 8.53683 (0.595524)
Outpt time (%) = 0.618507 (0.0431467)
Other time (%) = 31.8576 (2.22236)

Nlocal:    8000 ave 8000 max 8000 min
Histogram: 1 0 0 0 0 0 0 0 0 0
Nghost:    8913 ave 8913 max 8913 min
Histogram: 1 0 0 0 0 0 0 0 0 0
Neighs:    283414 ave 283414 max 283414 min
Histogram: 1 0 0 0 0 0 0 0 0 0

Total # of neighbors = 283414
Ave neighs/atom = 35.4267
Neighbor list builds = 5000
Dangerous builds = 0
unfix		1

# Melt half the system
region  liquid block INF INF INF INF INF ${nzhalf}
region  liquid block INF INF INF INF INF 10
group	liquid_group region liquid
3995 atoms in group liquid_group

# Heat up one side to Tmelt to make sure it is melted
fix 2 liquid_group npt temp ${Tmelt} ${Tmelt} 1 z 0 0 10 drag 1.0
fix 2 liquid_group npt temp 2000 ${Tmelt} 1 z 0 0 10 drag 1.0
fix 2 liquid_group npt temp 2000 2000 1 z 0 0 10 drag 1.0
run		${eqsteps}
run		50000
Memory usage per processor = 5.95825 Mbytes
Step Temp TotEng PotEng Press Pxx Pyy Pzz Lx Ly Lz 
   50000    1253.3862   -24225.988   -25521.929   -284.58474   -634.44656    102.94105    -322.2487     41.68401     41.68401     83.36802 
   50100    1253.9655   -24223.739   -25520.279   -210.90876   -471.05839   -29.529311   -132.13858     41.68401     41.68401    83.367997 
   50200    1251.6345   -24218.018   -25512.148   -56.523937   -396.35151   -210.75343    437.53314     41.68401     41.68401    83.368103 
   50300    1261.7009   -24211.699   -25516.237   -102.47947   -356.12145    -433.9928    482.67583     41.68401     41.68401    83.368472 
   50400    1247.6016   -24205.933   -25495.893    671.12554    430.01414     806.5089    776.85358     41.68401     41.68401    83.369067 
   50500    1251.8566   -24200.048   -25494.407    676.17807    367.69842    836.89055    823.94525     41.68401     41.68401    83.369975 
   50600    1255.2249   -24193.638   -25491.481    774.77671    232.87125    1128.9927    962.46618     41.68401     41.68401    83.371254 
   50700    1265.2184   -24186.935    -25495.11    657.95666    654.38402    297.06922    1022.4168     41.68401     41.68401    83.372984 
   50800    1273.5432   -24180.133   -25496.915    691.36854    642.15016    794.86581    637.08965     41.68401     41.68401    83.375266 
   50900    1278.1632    -24173.14     -25494.7    747.84267    295.46883    845.34265    1102.7165     41.68401     41.68401     83.37794 
   51000    1271.7456   -24166.189   -25481.113    1076.8046    576.80916    1066.5532    1587.0515     41.68401     41.68401    83.381055 
   51100    1270.5597   -24159.183   -25472.881    1215.6711    1154.6476    1751.5686    740.79697     41.68401     41.68401    83.384842 
   51200    1290.2059   -24152.163   -25486.174    957.87193    714.72725    874.95911    1283.9294     41.68401     41.68401     83.38929 
   51300    1271.6974   -24145.085   -25459.958    1604.1533    1464.7021    1515.8475    1831.9103     41.68401     41.68401    83.394571 
   51400    1277.2519   -24137.999   -25458.616    1641.4738    1713.3352    1473.1339    1737.9522     41.68401     41.68401    83.400761 
   51500    1276.9633   -24130.959   -25451.277    1662.8483    662.18143    1990.1382    2336.2251     41.68401     41.68401    83.407913 
   51600    1264.6742   -24123.836   -25431.448    2261.7386     2368.551    1724.6755    2691.9894     41.68401     41.68401    83.416273 
   51700    1266.9547   -24116.716   -25426.686    2475.4445    1866.3895    2723.0874    2836.8566     41.68401     41.68401    83.425863 
   51800    1264.9138   -24109.623   -25417.483    2650.3047    2181.0856    2615.2877    3154.5409     41.68401     41.68401    83.436658 
   51900    1277.5562   -24102.487   -25423.419    2257.1345    2080.6865    1912.4288    2778.2883     41.68401     41.68401    83.448807 
   52000    1285.3711   -24095.321   -25424.333    2235.5155    1796.6045    2478.8697    2431.0722     41.68401     41.68401    83.462186 
   52100    1281.7712   -24088.128   -25413.417    2563.2299    2530.6476    2682.3632    2476.6789     41.68401     41.68401    83.476751 
   52200    1292.2532   -24080.964   -25417.092    2343.0755    2009.3765    1842.7418    3177.1081     41.68401     41.68401    83.492552 
   52300    1283.1962   -24073.798   -25400.561    2695.6045    2226.9331    3393.8687    2466.0118     41.68401     41.68401    83.509741 
   52400    1275.8279   -24066.662   -25385.806    2973.8563    2334.2917    3242.9732     3344.304     41.68401     41.68401    83.528097 
   52500    1300.1756   -24059.517   -25403.836    2449.3929    1579.3584    2756.6863     3012.134     41.68401     41.68401    83.547827 
   52600    1283.9282   -24052.314   -25379.834    3017.0482    2829.7715     3010.057    3211.3163     41.68401     41.68401     83.56892 
   52700    1285.2128   -24045.144   -25373.992    3043.0204    3063.0073      2875.05     3191.004     41.68401     41.68401    83.591346 
   52800    1282.0328   -24037.943   -25363.504    3073.2487    2279.1329    3640.3973    3300.2157     41.68401     41.68401     83.61502 
   52900    1292.5208   -24030.731   -25367.136    2838.9762    1742.6947    3596.3945    3177.8395     41.68401     41.68401    83.639846 
   53000    1287.6482   -24023.535   -25354.901     2894.839    2703.1628    2554.3216    3427.0327     41.68401     41.68401     83.66583 
   53100    1287.8408   -24016.332   -25347.898    2933.2715    2787.9728    2984.1218      3027.72     41.68401     41.68401    83.693022 
   53200     1287.713   -24009.154   -25340.587    2979.0187    3510.9419    2838.9718    2587.1424     41.68401     41.68401    83.721252 
   53300    1277.0986   -24001.956   -25322.414    3359.0826    3263.6811    3704.1498    3109.4167     41.68401     41.68401    83.750387 
   53400     1278.536   -23994.835    -25316.78    3332.2033    3494.7918    2756.9372    3744.8809     41.68401     41.68401    83.780591 
   53500    1282.1554   -23987.676   -25313.363    3230.7897    2994.9472    3290.4275    3406.9944     41.68401     41.68401    83.812059 
   53600    1286.7409   -23980.539   -25310.968    3112.8546    2922.1801    2900.3855    3515.9984     41.68401     41.68401    83.844664 
   53700     1284.358   -23973.335   -25301.299    3375.5147    4069.5958    2961.7226    3095.2257     41.68401     41.68401    83.878391 
   53800    1291.8287   -23966.189   -25301.878    2723.7668    2598.7307    3105.4354    2467.1344     41.68401     41.68401    83.912971 
   53900    1271.9599    -23959.04   -25274.186    3381.0241    2837.4069    3589.3477    3716.3178     41.68401     41.68401    83.948201 
   54000    1286.2398   -23951.823   -25281.733    3016.6388    2865.9772    3151.9435    3031.9957     41.68401     41.68401    83.984177 
   54100    1275.5057   -23944.652   -25263.463    3248.1804    2743.6353    3264.0851    3736.8207     41.68401     41.68401    84.020683 
   54200    1275.0829   -23937.493   -25255.867    3187.7215    4233.9227    2785.6507    2543.5913     41.68401     41.68401    84.057886 
   54300    1276.7938   -23930.268   -25250.412    3084.6521    3114.2323    3193.9571    2945.7668     41.68401     41.68401    84.095431 
   54400    1284.6922   -23923.092   -25251.401    2888.1448    3260.7031    3331.3534    2072.3779     41.68401     41.68401    84.133266 
   54500    1287.0019   -23915.843   -25246.542     2848.804    3237.5955    3172.3107    2136.5059     41.68401     41.68401    84.170994 
   54600    1268.7391   -23908.606   -25220.421      3092.75    3470.9569    3233.6096    2573.6834     41.68401     41.68401    84.208579 
   54700    1272.7695   -23901.413   -25217.395    3067.0157    3151.7795    3287.6537    2761.6138     41.68401     41.68401    84.246098 
[...]
   86300    2012.2689   -22314.121   -24394.711    3233.0135    4799.1752    5613.6941   -713.82864     41.68401     41.68401    88.874608 
   86400    1986.6536   -22313.614   -24367.718    3932.5599    6422.1461    5168.4327      207.101     41.68401     41.68401    88.874886 
   86500    2003.7228    -22313.09   -24384.843    3343.1273    5410.2156    5288.9836   -669.81711     41.68401     41.68401    88.875223 
   86600    1996.3527   -22312.805   -24376.938    3301.0505    5084.8695    4589.3493    228.93284     41.68401     41.68401    88.875103 
   86700    1992.8426   -22312.722   -24373.225    3666.6482    5370.2986     5964.613   -334.96685     41.68401     41.68401    88.874674 
   86800     2013.156   -22312.645   -24394.151    3352.3979    5664.4627     5512.663   -1119.9319     41.68401     41.68401    88.873966 
   86900    1997.2799   -22312.644   -24377.735    4190.5231    5334.0211    7211.7497    25.798512     41.68401     41.68401    88.872754 
   87000     2004.095   -22312.681   -24384.819    3555.9814    4898.3722    6165.7232   -396.15132     41.68401     41.68401    88.871576 
   87100    1990.7826   -22312.695   -24371.069     3532.767    4901.4194     5759.908   -63.026534     41.68401     41.68401    88.870689 
   87200    2004.9311   -22312.608    -24385.61     3549.935    4985.3531    5155.7719     508.6798     41.68401     41.68401    88.870168 
   87300    2011.1821   -22312.562   -24392.028    3205.6902    4524.9428    5279.0281   -186.90035     41.68401     41.68401    88.870035 
   87400     2014.727   -22312.562   -24395.693     3025.118    6396.7075     3932.905   -1254.2587     41.68401     41.68401    88.869825 
   87500    2002.6009   -22312.683   -24383.276    3565.1371    4624.9263    4760.4908     1309.994     41.68401     41.68401    88.869282 
   87600    1996.7144   -22312.794   -24377.301    3616.8647    5221.1392    6165.4033   -535.94835     41.68401     41.68401    88.868924 
   87700    1991.4606    -22312.95   -24372.024    3863.2185    5482.6155    5566.8004    540.23946     41.68401     41.68401    88.868157 
   87800    2004.7935   -22312.994   -24385.854    3420.9968       4722.8    5329.6507    210.53967     41.68401     41.68401    88.867508 
   87900    1992.1744   -22313.085   -24372.898    3336.5996    5478.5183    6615.8186    -2084.538     41.68401     41.68401    88.866871 
   88000    2009.9768   -22313.205   -24391.425    2948.9179    5043.8131    4918.5671   -1115.6264     41.68401     41.68401    88.865647 
   88100    1988.5934   -22313.345   -24369.455    3479.7444    4432.7609    5646.3935    360.07894     41.68401     41.68401    88.863996 
   88200    1989.2458   -22313.464   -24370.249    3707.3686    5011.9542    5809.8483    300.30338     41.68401     41.68401    88.862425 
   88300    2001.6286   -22313.447   -24383.035    3703.1435    5940.6373    5200.2438   -31.450664     41.68401     41.68401     88.86096 
   88400    2000.5242   -22313.485   -24381.931    3756.0825    6096.6104    6285.1191   -1113.4819     41.68401     41.68401    88.859632 
   88500    1996.9225   -22313.635   -24378.357    3565.3964    5607.6166    5727.9244   -639.35187     41.68401     41.68401    88.857821 
   88600    1981.6256   -22313.691   -24362.597    3901.3647    5299.8654    6282.7127    121.51609     41.68401     41.68401    88.855697 
   88700    2001.8069    -22313.63   -24383.402    3388.2281    4365.7414    5818.3554   -19.412648     41.68401     41.68401    88.853751 
   88800    1992.2515   -22313.614   -24373.507    3992.6963    6142.2908    5719.8833    115.91492     41.68401     41.68401    88.851858 
   88900     1997.235   -22313.514   -24378.559     3466.246    5106.2669    5095.7024     196.7686     41.68401     41.68401    88.850011 
   89000    2002.7384   -22313.398   -24384.134     3609.073    5502.2106    5134.5536    190.45478     41.68401     41.68401    88.848339 
   89100    2006.6513   -22313.129    -24387.91    3629.2162    4752.9768    6738.6944   -604.02269     41.68401     41.68401    88.846799 
   89200    2002.1749   -22312.957    -24383.11    3689.9083    5025.1111    5597.7858     446.8282     41.68401     41.68401    88.845338 
   89300    2000.3697   -22312.853   -24381.139    3824.0415    4740.9341    5999.1343    732.05595     41.68401     41.68401     88.84411 
   89400    1990.7548    -22312.67   -24371.015     3764.681     5384.472    6397.6056    -488.0347     41.68401     41.68401     88.84307 
   89500    1991.8392   -22312.405   -24371.871    3827.3234    5483.0781    7089.2185   -1090.3264     41.68401     41.68401    88.841615 
   89600     1986.674   -22312.108   -24366.233    3715.8726    4252.7407    5931.5347    963.34242     41.68401     41.68401    88.839791 
   89700    2015.5796    -22311.81   -24395.823    3218.9548    4440.7283    5114.6104    101.52562     41.68401     41.68401    88.838174 
   89800    2009.0891   -22311.569   -24388.871     3630.012    4966.0917     4988.164    935.78019     41.68401     41.68401    88.836785 
   89900    1997.9172   -22311.351   -24377.101    4032.5241    5160.2484    6419.4023    517.92149     41.68401     41.68401    88.836014 
   90000    1986.6205   -22311.163   -24365.233    4106.2585    4611.0963    7956.5521   -248.87307     41.68401     41.68401    88.835724 
   90100    2012.2425    -22311.06   -24391.622    3349.6662    5015.6026    4174.6329     858.7631     41.68401     41.68401      88.8354 
   90200    1994.8873   -22310.981   -24373.599    4155.3992    5797.8824     6549.454    118.86103     41.68401     41.68401    88.835433 
   90300    1992.6624   -22310.866   -24371.183    3687.2002    4905.4897    6105.8729    50.237854     41.68401     41.68401      88.8359 
   90400     2005.085   -22310.838   -24383.999    3311.2683    4776.0357    5567.5925   -409.82332     41.68401     41.68401    88.836336 
   90500    2012.0651   -22310.872    -24391.25    3465.5689    5267.6393    5206.0515   -76.984065     41.68401     41.68401    88.836507 
   90600    1987.7913   -22311.021   -24366.302    3777.9046    5323.9498    6171.0843   -161.32026     41.68401     41.68401     88.83674 
   90700    1994.1038   -22311.118   -24372.926    3988.5736     5233.704    6690.2405    41.776428     41.68401     41.68401    88.837097 
   90800    2009.3915   -22311.241   -24388.855    3351.1357    6070.2224    4555.0178   -571.83301     41.68401     41.68401    88.837589 
   90900    2014.5659   -22311.402   -24394.367    3086.6201    3124.9771    5818.5466    316.33666     41.68401     41.68401    88.838024 
   91000    1999.0937   -22311.632   -24378.599    3807.0079    6182.7217    5553.2862   -314.98403     41.68401     41.68401    88.838648 
   91100    1996.2272   -22311.843   -24375.846    3801.5696    5428.2047    6053.0705   -76.566573     41.68401     41.68401    88.838939 
   91200    2001.5505   -22312.028   -24381.535    3747.9709     5789.958    5683.0907   -229.13583     41.68401     41.68401    88.839088 
   91300    2011.3413   -22312.232   -24391.862    3298.6484    4151.9133    5861.5551   -117.52313     41.68401     41.68401    88.839118 
   91400    1993.2087   -22312.395   -24373.277    3759.4405    4621.6412    6339.0111    317.66925     41.68401     41.68401    88.838946 
   91500    2007.8103   -22312.553   -24388.533    3402.1756    4680.7216    5730.0876   -204.28228     41.68401     41.68401     88.83892 
   91600    1984.0597   -22312.751   -24364.173    4160.6771    6084.8146    6315.4409    81.775765     41.68401     41.68401    88.838983 
   91700    2012.4528   -22312.915   -24393.694    3578.3589     6808.612    4835.3197   -908.85488     41.68401     41.68401    88.839166 
   91800     2005.339   -22313.078   -24386.502    3410.2149    4796.0524    5127.2517    307.34069     41.68401     41.68401    88.839267 
   91900    2015.0377   -22313.265   -24396.717    3106.5523    4047.3477    5364.4749   -92.165875     41.68401     41.68401    88.839634 
   92000    2010.4281   -22313.509   -24392.195    3174.6555    4263.6621    5426.5806   -166.27621     41.68401     41.68401    88.840304 
   92100    1979.7963   -22313.737   -24360.751    4154.1105     5638.006    6288.7029     535.6227     41.68401     41.68401    88.840974 
   92200    1999.9057   -22313.855   -24381.661    4150.0808    5826.0511    5743.3679     880.8235     41.68401     41.68401    88.841556 
   92300    1999.6271   -22313.948   -24381.466    3446.0181    5762.3242    4931.7225   -355.99238     41.68401     41.68401    88.842246 
   92400     2005.247   -22314.122   -24387.451    3576.3961    5543.8264     5984.724   -799.36194     41.68401     41.68401    88.842651 
   92500    1990.9234   -22314.401   -24372.921    3633.2973    5658.8738    4943.8606     297.1576     41.68401     41.68401    88.842533 
   92600    2011.0671   -22314.777   -24394.124    3327.0373    3764.1162     6043.087    173.90866     41.68401     41.68401    88.842452 
   92700    1993.6574   -22315.068   -24376.414    3746.5882    5189.6907    5849.7716    200.30227     41.68401     41.68401     88.84267 
   92800     2003.173   -22315.287   -24386.471    3413.4844    5452.6355    5531.2964   -743.47849     41.68401     41.68401    88.843029 
   92900    1996.5724   -22315.548   -24379.908    3605.6581    5556.5742     6197.152     -936.752     41.68401     41.68401    88.843166 
   93000    1995.1516   -22315.757   -24378.648    3340.0252    4834.9912    5092.2756    92.808795     41.68401     41.68401    88.843093 
   93100    1987.8194   -22315.861   -24371.171    3344.8228    4714.6114     6458.789   -1138.9319     41.68401     41.68401    88.842795 
   93200    2002.2797   -22315.868   -24386.129     3376.198    4617.2272    5504.9998    6.3670818     41.68401     41.68401    88.841986 
   93300    2004.0566   -22315.829   -24387.927    3272.2166    5405.6925    4408.2904    2.6668428     41.68401     41.68401    88.841189 
   93400    1999.0302   -22315.802   -24382.703    3435.5979    4620.5626    5637.3597    48.871567     41.68401     41.68401    88.840362 
   93500     2011.706   -22315.744   -24395.751    3275.9358    5510.4204    5058.2126   -740.82568     41.68401     41.68401    88.839883 
   93600    1991.8103   -22315.636   -24375.072    3762.1637    5446.2062    5284.8831    555.40171     41.68401     41.68401    88.839563 
   93700    2005.0577   -22315.564   -24388.697    3363.4961    4051.7873    5070.4907    968.21019     41.68401     41.68401     88.83966 
   93800     1995.463   -22315.569   -24378.782    3639.5512    5209.4652    5783.4673   -74.278784     41.68401     41.68401    88.840172 
   93900    1989.1479   -22315.628   -24372.311    3917.1426    5486.2637    5790.7498    474.41429     41.68401     41.68401    88.840599 
   94000    1995.3454   -22315.708   -24378.799    4322.5276    5803.7872    6024.3949    1139.4006     41.68401     41.68401     88.84125 
   94100    1997.7001   -22315.722   -24381.248    3644.0962    4483.7242    6055.2363    393.32824     41.68401     41.68401    88.842342 
   94200    2020.8834   -22315.774    -24405.27    2883.6061     3461.764     5224.006   -34.951479     41.68401     41.68401    88.843689 
   94300    2001.6664   -22315.913    -24385.54    3019.5314    4417.8253    5879.9821   -1239.2132     41.68401     41.68401    88.845082 
   94400    2012.0159   -22316.092    -24396.42    3518.3057    5103.1631    5603.2833   -151.52935     41.68401     41.68401    88.846103 
   94500    1989.1794   -22316.226   -24372.942    3668.2702    5484.6158    6024.3529   -504.15816     41.68401     41.68401    88.847071 
   94600    1990.5131   -22316.284   -24374.379    3830.1147    4955.0285    5976.7398     558.5758     41.68401     41.68401    88.847825 
   94700    1982.6286   -22316.211   -24366.154    3736.1004    5878.3984    5447.3704   -117.46769     41.68401     41.68401     88.84893 
   94800    1992.6863   -22316.142   -24376.484    3732.5956    5211.4374    5649.7296    336.61982     41.68401     41.68401     88.84988 
   94900    2010.4903   -22316.081   -24394.831    3203.5282    5272.0735    4423.2631   -84.752012     41.68401     41.68401    88.850639 
   95000     1981.567   -22315.992   -24364.837    3895.8794    4728.3415    6186.1734     773.1234     41.68401     41.68401    88.851317 
   95100    2018.1343   -22315.834   -24402.488      3439.49    5069.3129    4882.5951    366.56184     41.68401     41.68401    88.852145 
   95200    1980.5295   -22315.694   -24363.466    4181.8254     5586.521    5341.5222    1617.4331     41.68401     41.68401    88.853287 
   95300     1990.501   -22315.604   -24373.686    3388.9352    5171.9147    5311.8298   -316.93881     41.68401     41.68401    88.854898 
   95400    1993.4422   -22315.571   -24376.695    3595.2279    5401.9768    5521.6291   -137.92214     41.68401     41.68401    88.856487 
   95500     2022.212   -22315.518   -24406.388    2518.4077    3804.0958    4378.7798   -627.65255     41.68401     41.68401    88.858235 
   95600    2000.5381   -22315.578   -24384.038    3501.1551    5960.4633    5958.5366   -1415.5344     41.68401     41.68401      88.8598 
   95700    2005.7747     -22315.6   -24389.475    3309.4681    4507.0562     4166.288    1255.0601     41.68401     41.68401    88.861032 
   95800    2018.6407   -22315.624   -24402.801    2922.9255    5399.5382    4965.5457   -1596.3074     41.68401     41.68401    88.862653 
   95900    1982.8137   -22315.673   -24365.807    3517.2121      5018.12     4985.132    548.38442     41.68401     41.68401    88.863931 
   96000    1993.5243    -22315.78   -24376.988    3097.7396    3715.3406     5261.164    316.71421     41.68401     41.68401    88.865359 
   96100    1990.6932   -22315.849    -24374.13    3439.0048    5747.7185    4506.6056    62.690238     41.68401     41.68401    88.866716 
   96200    1996.5126   -22315.949   -24380.247    3134.8247    5332.2762    4857.4516   -785.25361     41.68401     41.68401    88.867704 
   96300    1976.5703   -22315.962    -24359.64    3982.5274    6071.9305    5625.4246    250.22697     41.68401     41.68401    88.868493 
   96400    2011.3577   -22315.939   -24395.586    2992.9597    4852.8377    4274.1054   -148.06402     41.68401     41.68401    88.869345 
   96500    2008.3327   -22315.949   -24392.468    3113.3363    5773.5074    5246.5071   -1680.0056     41.68401     41.68401    88.870176 
   96600    1994.6027   -22316.026    -24378.35     3336.293     5586.419    5379.7884    -957.3282     41.68401     41.68401    88.870325 
   96700    1995.7351   -22316.199   -24379.693    3765.5314    5362.3143    6588.6264   -654.34645     41.68401     41.68401    88.869657 
   96800    2023.5917    -22316.41   -24408.707    2873.1281    4737.2552    4865.9417   -983.81244     41.68401     41.68401    88.868293 
   96900    1997.7242   -22316.648   -24382.199     3296.875    4239.1144     6052.971   -401.46035     41.68401     41.68401     88.86647 
   97000    2005.5547   -22316.805   -24390.452     3157.946    4462.7159    4873.1285    137.99349     41.68401     41.68401    88.864494 
   97100    2005.8423   -22316.871   -24390.815    3294.7489    4826.1309    5276.7574    -218.6416     41.68401     41.68401    88.862592 
   97200    2018.8823   -22316.964   -24404.391    2854.6321    3842.1557    4943.3473   -221.60681     41.68401     41.68401    88.860697 
   97300    1999.3178   -22317.164   -24384.363    3503.8726    4767.2399    5223.7366     520.6414     41.68401     41.68401    88.858941 
   97400    1992.9651   -22317.259   -24377.889    3527.6676    5136.1542    5302.7296    144.11916     41.68401     41.68401    88.857544 
   97500    1979.5888   -22317.251   -24364.051    3840.3648    4133.1281    5569.7916    1818.1747     41.68401     41.68401    88.856452 
   97600    1986.3405   -22317.112   -24370.893    3607.5669    6637.5236    5683.4386   -1498.2616     41.68401     41.68401    88.855568 
   97700    2001.4515    -22316.85   -24386.255     3675.052    5752.1762    5594.5186   -321.53882     41.68401     41.68401    88.854185 
   97800    2012.7509   -22316.586   -24397.673    2695.3178    3997.8633    4621.8399   -533.74983     41.68401     41.68401    88.852588 
   97900    1991.2399   -22316.419   -24375.265    3574.1621    5122.2386    5683.8849   -83.637059     41.68401     41.68401     88.85091 
   98000    1999.0579   -22316.194   -24383.124     3466.406    5221.0925    4790.1102    388.01541     41.68401     41.68401    88.849272 
   98100    2002.6266   -22315.985   -24386.605    3296.7118    5552.1803    4974.8645   -636.90936     41.68401     41.68401    88.847728 
   98200    1980.7689   -22315.785   -24363.805    4113.3399    6183.2613    5598.2932     558.4652     41.68401     41.68401    88.845979 
   98300    1997.2687   -22315.556   -24380.636    3837.7116    6221.8889    6059.7831   -768.53711     41.68401     41.68401    88.844285 
   98400    1988.4616   -22315.384   -24371.358    4015.6154    5434.6096    5348.8398    1263.3969     41.68401     41.68401    88.842551 
   98500    1999.1553   -22315.216   -24382.247    3366.1135    4880.6909    5236.8253   -19.175793     41.68401     41.68401    88.841127 
   98600    1996.2606   -22315.018   -24379.055    3642.5323    5243.4856    6510.5686   -826.45736     41.68401     41.68401    88.839639 
   98700    2000.6454   -22314.785   -24383.356         3482    6138.0185    4208.0464    99.935055     41.68401     41.68401    88.837885 
   98800    2014.0507   -22314.571   -24397.003     3410.391    4720.3796    5602.5097   -91.716342     41.68401     41.68401    88.836108 
   98900    2009.2422   -22314.399   -24391.858    3535.0799    4819.2489    6273.4426   -487.45183     41.68401     41.68401    88.834326 
   99000    2004.6642   -22314.351   -24387.078    3640.6316       5544.6    4887.0967    490.19818     41.68401     41.68401    88.832496 
   99100    2012.9612   -22314.365   -24395.671    3238.5676    4994.2461    5466.8154   -745.35858     41.68401     41.68401    88.830735 
   99200    2026.1793   -22314.376   -24409.348    3296.3058    5669.2554     5044.407   -824.74509     41.68401     41.68401    88.828782 
   99300    2006.6369   -22314.427   -24389.193    4020.2595    5407.7595    5254.6501    1398.3688     41.68401     41.68401    88.826752 
   99400    1997.9617   -22314.472   -24380.268    3764.4591    5499.4387    5326.0309    467.90763     41.68401     41.68401    88.825079 
   99500    2011.2691   -22314.566   -24394.122    3008.1222    5006.9104    5724.9695   -1707.5134     41.68401     41.68401    88.823423 
   99600    2012.8193   -22314.733   -24395.891    3445.8683    4924.4029    5355.9426     57.25951     41.68401     41.68401    88.821139 
   99700    1996.3908   -22314.906   -24379.078    3400.8221    4592.0555    5129.7325    480.67822     41.68401     41.68401    88.818777 
   99800    2016.0171   -22315.124   -24399.589    3328.5927    4865.7088    6177.9478   -1057.8787     41.68401     41.68401     88.81659 
   99900    2001.3369   -22315.359   -24384.645    3486.3776    4466.5401    5392.5614    600.03122     41.68401     41.68401    88.814208 
  100000    1987.0948   -22315.553   -24370.113    3457.7048    5669.7492     5126.106   -422.74073     41.68401     41.68401    88.811898 
Loop time of 1366.9 on 1 procs for 50000 steps with 8000 atoms

Pair  time (%) = 1238.1 (90.5769)
Neigh time (%) = 95.4686 (6.98431)
Comm  time (%) = 8.24376 (0.603099)
Outpt time (%) = 0.617846 (0.0452005)
Other time (%) = 24.4748 (1.79053)

Nlocal:    8000 ave 8000 max 8000 min
Histogram: 1 0 0 0 0 0 0 0 0 0
Nghost:    8515 ave 8515 max 8515 min
Histogram: 1 0 0 0 0 0 0 0 0 0
Neighs:    267349 ave 267349 max 267349 min
Histogram: 1 0 0 0 0 0 0 0 0 0

Total # of neighbors = 267349
Ave neighs/atom = 33.4186
Neighbor list builds = 5000
Dangerous builds = 0
