LAMMPS (13 Jan 2014)
dimension       3
boundary        p p p
units           metal

atom_style	atomic
neighbor	0.3 bin
neigh_modify	every 10 delay 0 check no

# Number of steps for the equilibration steps
variable        eqsteps equal 50000

# Number of steps to run our NPH simulation
variable        simsteps equal 200000

# Our trial melting temperature
variable	T equal 1325.0
variable	T2 equal 2*${T}
variable	T2 equal 2*1325

# Some high temperature to melt the crystal
variable	Tmelt equal 2000.0

#System size
variable	nx equal 10
variable	ny equal 10
variable	nz equal 20
variable	nzhalf equal ${nz}*0.5
variable	nzhalf equal 20*0.5
variable	a equal 4.050
variable	length equal ${nz}*${a}
variable	length equal 20*${a}
variable	length equal 20*4.05

lattice		fcc ${a}
lattice		fcc 4.05
Lattice spacing in x,y,z = 4.05 4.05 4.05

region         box block 0 ${nx} 0 ${ny} 0 ${nz}
region         box block 0 10 0 ${ny} 0 ${nz}
region         box block 0 10 0 10 0 ${nz}
region         box block 0 10 0 10 0 20
create_box     1 box
Created orthogonal box = (0 0 0) to (40.5 40.5 81)
  1 by 1 by 1 MPI processor grid
create_atoms   1 box
Created 8000 atoms

mass		1 26.9815

pair_style	eam/alloy
pair_coeff	* * Al_potential.alloy Al

velocity	all create ${T2} 1337
velocity	all create 2650 1337

# Create a dump file. This can be visualized with
# e.g. OVITO (http://www.ovito.org/)
dump		id all atom 1000 atomsdump

# 1 fs timestep
timestep	0.001
thermo_style	custom step temp etotal pe press pxx pyy pzz lx ly lz

# output every 100th timestep
thermo		100

# Equilibration the whole system to the trial melting temperature
fix		1 all npt temp ${T} ${T} 1 iso 0 0 3 drag 1.0
fix		1 all npt temp 1325 ${T} 1 iso 0 0 3 drag 1.0
fix		1 all npt temp 1325 1325 1 iso 0 0 3 drag 1.0
run		${eqsteps}
run		50000
Memory usage per processor = 5.95314 Mbytes
Step Temp TotEng PotEng Press Pxx Pyy Pzz Lx Ly Lz 
       0         2650   -24437.279   -27177.252    17964.017    17763.837     17743.13    18385.085         40.5         40.5           81 
     100    1233.6212   -24467.172   -25742.677    45906.202    46298.549     46172.11    45247.948    40.591851    40.591851    81.183702 
     200    1236.1829   -24519.701   -25797.855     32507.98    33412.707    32438.345    31672.887    40.816191    40.816191    81.632383 
     300    1203.1539   -24549.895   -25793.898    22680.539    23268.948    22237.906    22534.762    41.007719    41.007719    82.015437 
     400    1199.4445     -24563.6   -25803.768     14999.23     15458.37      14320.1     15219.22    41.158086    41.158086    82.316172 
     500    1183.0407   -24568.147   -25791.354    8940.0852    9307.9437    8383.1968    9129.1151    41.287627    41.287627    82.575255 
     600    1161.0458   -24566.955    -25767.42    4745.1424    5218.3707    4662.9674     4354.089    41.391578    41.391578    82.783156 
     700    1165.1303   -24562.329   -25767.018    1162.5957    1080.6547    1285.3512    1121.7811    41.468061    41.468061    82.936122 
     800    1149.9775   -24556.426   -25745.447    -604.5707   -404.76281   -222.78504   -1186.1643    41.519304    41.519304    83.038608 
     900    1144.8429   -24550.368   -25734.081   -1616.1316   -1677.9695   -1605.9643   -1564.4611    41.550096    41.550096    83.100192 
    1000    1143.9295   -24544.348   -25727.116   -2081.0998   -1589.1837   -2724.5654   -1929.5502    41.564348    41.564348    83.128695 
    1100    1160.2441   -24538.425   -25738.061   -2363.2775   -2141.9658   -2777.1893   -2170.6774    41.566087    41.566087    83.132173 
    1200    1155.1617   -24532.521   -25726.902    -1807.708   -1936.5957   -1631.8331   -1854.6951    41.558428    41.558428    83.116857 
    1300    1167.3182   -24526.599    -25733.55   -1259.6632   -697.62384   -1638.3783   -1442.9874    41.545147    41.545147    83.090293 
    1400    1162.4418   -24520.607   -25722.516   -249.87017     11.13777   -468.33862   -292.40965    41.530275    41.530275     83.06055 
    1500    1163.3704    -24514.47   -25717.339    356.43945    64.286825    611.58897    393.44256    41.517386    41.517386    83.034773 
    1600    1176.7099   -24508.369   -25725.031    605.39519    1575.4794    807.32354   -566.61735    41.507763    41.507763    83.015527 
    1700    1173.0134   -24502.282   -25715.122    1146.2844    1702.7356    698.24992    1037.8678    41.502702    41.502702    83.005403 
    1800    1192.0973   -24496.345   -25728.916    925.58019    1242.3327    1148.1877    386.22021    41.502755    41.502755    83.005509 
    1900    1181.4943   -24490.474   -25712.082    1168.7374    1635.5229    1697.3558     173.3334    41.507694    41.507694    83.015389 
    2000    1180.8083   -24484.663   -25705.562    906.27459    530.24274    949.58444    1238.9966    41.516555    41.516555     83.03311 
    2100    1170.0952   -24478.933   -25688.755    832.52894    1159.2401    1098.3659    239.98075    41.527445    41.527445     83.05489 
    2200    1176.9782   -24473.105   -25690.044    193.71163    216.22146    248.30286    116.61056    41.539214    41.539214    83.078428 
    2300    1162.8999   -24467.316   -25669.698    461.76079    772.41479    301.19101    311.67657    41.549744    41.549744    83.099487 
    2400    1201.6309   -24461.519   -25703.947   -691.03416   -921.55431   -370.96682   -780.58133    41.558541    41.558541    83.117083 
    2500    1188.6806   -24455.827   -25684.866   -370.46142   -662.86013   -710.55973     262.0356    41.564071    41.564071    83.128142 
    2600    1207.0774   -24450.096   -25698.156   -905.61683   -937.58595   -1060.3951   -718.86947    41.567042    41.567042    83.134085 
    2700    1192.1035   -24444.529   -25677.106   -359.91469    -44.26372   -590.10986   -445.37049    41.567049    41.567049    83.134098 
    2800    1200.4075   -24438.929   -25680.093   -420.40234   -676.36594   -234.96655   -349.87454    41.565788    41.565788    83.131576 
    2900    1187.7479   -24433.403   -25661.477    256.34306    177.53025   -19.359279    610.85819    41.563328    41.563328    83.126656 
    3000    1197.4074   -24427.892   -25665.954      335.817   -626.44311    568.52585    1065.3683    41.561179    41.561179    83.122358 
    3100    1202.0901   -24422.467    -25665.37     367.8672   -46.248378    671.50878    478.34119    41.560298    41.560298    83.120595 
    3200    1208.0188    -24417.04   -25666.074    213.83966    468.68644    416.00582   -243.17328    41.561041    41.561041    83.122083 
    3300    1194.8664   -24411.677   -25647.112    863.83805    365.59649    1290.7333    935.18436    41.563188    41.563188    83.126377 
    3400    1212.1327   -24406.321   -25659.608    178.64342   -703.83264    181.58559    1058.1773    41.567647    41.567647    83.135295 
    3500    1211.7398   -24401.047   -25653.927    162.03297   -593.84611    477.03183    602.91318     41.57302     41.57302    83.146041 
    3600    1210.5821   -24395.822   -25647.506    111.32083    287.05564    120.38763   -73.480787    41.578839    41.578839    83.157678 
    3700    1224.3655   -24390.638   -25656.573   -186.38591    327.52366   -419.50281   -467.17859     41.58463     41.58463     83.16926 
    3800    1206.8132   -24385.558   -25633.344    54.026292    8.3159396    132.58958    21.173354    41.589658    41.589658    83.179315 
    3900    1210.5543   -24380.466    -25632.12   -83.919106   -420.48079    275.75647     -107.033    41.594174    41.594174    83.188348 
    4000    1221.0253   -24375.378   -25637.859   -282.33127   -668.75801   -551.49906    373.26327    41.597845    41.597845    83.195689 
    4100    1232.2129    -24370.41   -25644.459   -476.74227    261.35694   -916.25071   -775.33305    41.599832    41.599832    83.199664 
    4200    1228.1724   -24365.575   -25635.447   -331.84917    -743.7955    171.90508   -423.65709    41.600503    41.600503    83.201005 
    4300    1220.7957   -24360.749   -25622.993    169.19007    125.08621   -242.40822    624.89221    41.600545    41.600545    83.201091 
    4400    1239.0528    -24355.93   -25637.051   -361.04772   -19.350102   -872.21266    -191.5804    41.600659    41.600659    83.201318 
    4500    1216.7712   -24351.235   -25609.318    439.48681    645.17452   -228.15273    901.43864    41.599997    41.599997    83.199995 
    4600    1228.5856    -24346.55   -25616.848    200.22188   -406.72055    933.04931    74.336892    41.600571    41.600571    83.201141 
    4700    1233.7308   -24341.796   -25617.414    271.27576   -9.4744933    176.00405    647.29773     41.60265     41.60265    83.205301 
    4800    1238.0807    -24337.17   -25617.286    104.00176   -138.49147    579.50434   -129.00759    41.605616    41.605616    83.211232 
    4900    1237.0661   -24332.605   -25611.672    181.91771   -515.69696    1022.3706    39.079492     41.60918     41.60918    83.218359 
    5000    1222.0293    -24328.06   -25591.579    468.06344    254.39306   -102.24551    1252.0428    41.613432    41.613432    83.226864 
    5100    1232.5118   -24323.541   -25597.899    90.016143    896.14978    611.81772   -1237.9191    41.617905    41.617905     83.23581 
    5200    1245.4377   -24319.068   -25606.791   -300.36527   -136.62815   -5.9422538   -758.52542    41.621922    41.621922    83.243845 
    5300    1234.3549   -24314.652   -25590.915   -1.9672927   -11.528866    281.16997   -275.54298    41.625074    41.625074    83.250148 
    5400    1231.1576   -24310.267   -25583.225    4.6639567    383.45694    193.01381   -562.47888    41.627669    41.627669    83.255337 
    5500    1227.8806    -24305.83   -25575.399    214.72353    113.77624   -323.70857    854.10293    41.629792    41.629792    83.259584 
    5600    1264.1316   -24301.417   -25608.468   -714.33613    131.03484   -835.12803   -1438.9152    41.631533    41.631533    83.263067 
    5700     1248.754   -24297.178    -25588.33    24.993273    548.19402    -111.6067   -361.60749    41.632021    41.632021    83.264042 
    5800     1235.399   -24292.994   -25570.337    450.13021    713.26759    492.42343    144.69962    41.632586    41.632586    83.265172 
    5900    1255.3635   -24288.813   -25586.798   -51.029262    527.14061    153.93031   -834.15871     41.63384     41.63384    83.267679 
    6000    1236.9944   -24284.712   -25563.704    583.85813    678.60586    386.31814    686.65039    41.635518    41.635518    83.271035 
    6100    1247.9073   -24280.545   -25570.821    255.45764    251.75442     641.2608    -126.6423    41.638491    41.638491    83.276981 
    6200    1249.7326   -24276.443   -25568.607    67.123598    574.08345   -217.41568   -155.29697    41.641722    41.641722    83.283445 
    6300    1248.5528   -24272.379   -25563.322   -106.37949   -489.12933    153.73576    16.255107    41.644919    41.644919    83.289838 
    6400    1250.4442   -24268.362   -25561.262    38.021631    44.976252   -87.034858     156.1235    41.647637    41.647637    83.295274 
    6500    1268.9547   -24264.342   -25576.381   -402.29575   -322.32055   -320.61394   -563.95276    41.650417    41.650417    83.300834 
    6600    1250.4391   -24260.406     -25553.3    116.98163    17.242989    590.47624   -256.77433    41.653008    41.653008    83.306016 
    6700    1257.6711   -24256.372   -25556.744   -188.16203   -682.00842      324.531   -207.00868    41.656328    41.656328    83.312656 
    6800    1257.2594   -24252.361   -25552.307   -245.34224    550.15391   -464.25222   -821.92841    41.659404    41.659404    83.318808 
    6900    1244.4561   -24248.352    -25535.06    46.168004     106.8845   -145.58802    177.20753    41.662233    41.662233    83.324466 
    7000    1247.4791   -24244.454   -25534.287    109.88128    629.50393   -16.047256   -283.81283    41.664394    41.664394    83.328788 
    7100    1269.9544    -24240.41   -25553.482   -365.81375   -812.50652   -475.42708    190.49235    41.667091    41.667091    83.334181 
    7200    1258.1998   -24236.536   -25537.454    13.035754   -66.856975    384.27144    -278.3072    41.668799    41.668799    83.337597 
    7300    1272.3021   -24232.762   -25548.262   -433.34563   -270.84403   -309.37657   -719.81628    41.670144    41.670144    83.340289 
    7400     1246.725   -24228.997   -25518.051    357.07646    556.92117    617.10474   -102.79654    41.671232    41.671232    83.342463 
    7500    1254.2686   -24225.203   -25522.056    292.24905   -32.035084    265.35938    643.42284    41.673114    41.673114    83.346229 
    7600    1268.8748   -24221.373   -25533.329   -181.01106   -79.680708   -88.463441   -374.88904    41.675666    41.675666    83.351333 
    7700    1249.6279   -24217.681   -25509.736    392.82503    587.43167    195.48679    395.55664    41.677828    41.677828    83.355657 
    7800    1268.3044   -24214.033   -25525.399   -230.12137   -326.62095   -80.614488   -283.12867    41.680072    41.680072    83.360145 
    7900    1269.5453   -24210.438   -25523.087   -185.44453    466.47797    -370.9149   -651.89667    41.681533    41.681533    83.363066 
    8000    1254.2518   -24206.978   -25503.814    226.69738    -255.0991    1018.4195   -83.228314    41.681844    41.681844    83.363688 
    8100    1282.2495   -24203.523   -25529.307   -129.85151    -247.5581    25.561557   -167.55799    41.682217    41.682217    83.364434 
    8200    1265.6423   -24200.098   -25508.712    280.29559    -1113.595    1489.9045     464.5772    41.683009    41.683009    83.366018 
    8300    1273.3709   -24196.714   -25513.318    358.07846    612.04337   -117.21558     579.4076    41.684631    41.684631    83.369261 
    8400    1257.3399   -24193.286   -25493.315    487.04323    597.71028    65.178986    798.24043    41.688074    41.688074    83.376148 
    8500    1261.3226   -24189.738   -25493.885    123.41138     342.2403   -523.56692    551.56078    41.692866    41.692866    83.385733 
    8600    1268.3487   -24186.182   -25497.593    -95.75538   -809.51776    484.18422    38.067404    41.697464    41.697464    83.394927 
    8700    1287.9244   -24182.687   -25514.339   -714.77735   -881.94123    -306.6133   -955.77752    41.701226    41.701226    83.402452 
    8800    1269.4884   -24179.317   -25491.907   -231.97213   -681.53059    325.88145   -340.26724    41.703428    41.703428    83.406857 
    8900    1260.3887   -24175.988    -25479.17    336.49276    841.07618    250.80639   -82.404292    41.704746    41.704746    83.409492 
    9000    1263.8743   -24172.636   -25479.421    38.380623   -514.31342    -413.1677     1042.623    41.706453    41.706453    83.412906 
    9100    1259.6762   -24169.228   -25471.672    98.838715   -119.05091    361.25384    54.313216    41.708308    41.708308    83.416617 
    9200    1281.3548   -24165.789   -25490.648  -0.72391672    19.766445    138.70068   -160.63887    41.710048    41.710048    83.420096 
    9300    1276.5613   -24162.432   -25482.335   -152.91867   -154.85334   -370.51233    66.609644    41.711522    41.711522    83.423043 
    9400    1281.6595   -24159.164   -25484.338   -235.22074   -126.37227   -327.27026   -252.01969    41.712477    41.712477    83.424954 
    9500    1266.7132   -24155.923   -25465.643    305.71445    498.17828    458.00775   -39.042678    41.713298    41.713298    83.426596 
    9600    1272.5473   -24152.735   -25468.488    173.50538     16.74034    150.09921     353.6766    41.714405    41.714405     83.42881 
    9700    1288.6624   -24149.517   -25481.932   -72.824776    11.668354    321.67731   -551.81999    41.716146    41.716146    83.432292 
    9800    1283.0775   -24146.413   -25473.054    75.755434   -67.353709   -476.38318    771.00319    41.718185    41.718185    83.436371 
    9900     1277.912   -24143.366   -25464.665     124.1536    211.34587   -42.162078      203.277    41.720376    41.720376    83.440751 
   10000    1280.7513   -24140.404   -25464.639     18.32667   -567.32116    804.33781   -182.03663    41.722394    41.722394    83.444788 
   10100    1274.2846   -24137.352   -25454.901    152.09345   -266.06686    129.44509    592.90211    41.725032    41.725032    83.450064 
   10200    1288.6802   -24134.323   -25466.756   -287.64307   -384.71413   -255.88159   -222.33349    41.727719    41.727719    83.455438 
   10300    1256.5385   -24131.351   -25430.551    419.21498    190.88193    323.04992    743.71308    41.729821    41.729821    83.459643 
   10400    1288.4418   -24128.283    -25460.47   -386.78111   -67.521131   -83.351485   -1009.4707    41.732026    41.732026    83.464052 
   10500    1267.2259   -24125.269    -25435.52    266.96741    260.95582    440.26941    99.677002    41.733485    41.733485     83.46697 
   10600    1274.2077    -24122.16   -25439.629     98.87389    165.58316    285.21155   -154.17304    41.735307    41.735307    83.470614 
   10700    1270.3012   -24119.074   -25432.504    66.912884    -129.2116    53.804053    276.14619    41.736956    41.736956    83.473911 
   10800    1282.3681   -24115.955   -25441.862   -117.30787   -96.561616    210.51715   -465.87914    41.738781    41.738781    83.477562 
   10900    1275.6216   -24112.836   -25431.768    221.77748    245.11167   -114.16826    534.38902    41.740921    41.740921    83.481843 
   11000      1283.61   -24109.766   -25436.957   -127.49883    188.11802    197.30047   -767.91499    41.743174    41.743174    83.486349 
   11100    1281.8421   -24106.806   -25432.169    111.54103    -351.9578    562.40589      124.175    41.744823    41.744823    83.489646 
   11200    1267.4693   -24103.818    -25414.32    452.09276   -106.33147    537.02057    925.58917    41.746892    41.746892    83.493784 
   11300    1251.4121   -24100.745   -25394.645    761.37017    1124.4476    589.43938     570.2235    41.750281    41.750281    83.500563 
   11400    1265.7874   -24097.508   -25406.272     162.1333   -166.27526    130.03528    522.63987    41.755143    41.755143    83.510285 
   11500    1268.7957    -24094.23   -25406.104   -121.13668   -702.97105    839.72578   -500.16477    41.759945    41.759945     83.51989 
   11600    1265.3534   -24090.917   -25399.231    18.591725   -189.35322   -416.22225    661.35064    41.763954    41.763954    83.527909 
   11700    1276.0457   -24087.549   -25406.919    -315.8978   -149.42727   -1024.1852    225.91909    41.767778    41.767778    83.535555 
   11800    1252.8492   -24084.109   -25379.495    253.42913    919.41605    426.57988   -585.70855    41.771284    41.771284    83.542567 
   11900    1253.1484     -24080.5   -25376.195    317.58833   -570.79748    1649.5146   -125.95213    41.775644    41.775644    83.551288 
   12000    1245.3417   -24076.739   -25364.363    262.96788    399.43393   -17.049623    406.51933    41.780755    41.780755    83.561509 
   12100    1243.0753   -24072.989    -25358.27    94.162257   -451.02673    450.61581    282.89768    41.785232    41.785232    83.570465 
   12200    1269.8235   -24069.265   -25382.201   -436.76703   -228.12237   -626.17638   -456.00233    41.788687    41.788687    83.577375 
   12300    1260.2708   -24065.588   -25368.648   -355.11924     566.4363   -951.55207   -680.24196    41.790718    41.790718    83.581436 
   12400    1258.1668   -24061.869   -25362.753    14.511314   -130.94349    614.91843     -440.441    41.791852    41.791852    83.583704 
   12500    1240.3022   -24058.158   -25340.571    522.92757    663.36588    214.17488    691.24196    41.792768    41.792768    83.585536 
   12600    1231.4993   -24054.334   -25327.645    839.72586    561.31546    872.77453    1085.0876    41.794962    41.794962    83.589925 
   12700    1260.5321   -24050.285   -25353.615   -143.65634   -271.19655   -19.873274   -139.89919    41.799447    41.799447    83.598894 
   12800    1252.4886   -24046.284   -25341.297    60.544945    76.337608   -705.80481    811.10203    41.803572    41.803572    83.607144 
   12900    1240.3128   -24042.353   -25324.777    114.29307    86.558567   -504.52689    760.84754    41.807503    41.807503    83.615006 
   13000    1249.7793   -24038.388     -25330.6    156.78614   -604.38128   -138.89306    1213.6328    41.811427    41.811427    83.622854 
   13100    1248.1606    -24034.45   -25324.988   -71.578395   -35.095233    29.284442    -208.9244    41.815716    41.815716    83.631433 
   13200     1232.735   -24030.434   -25305.023    583.18077    679.75837    350.77348    719.01048    41.820268    41.820268    83.640537 
   13300    1240.9915   -24026.294    -25309.42    164.52187   -860.36172    88.112226    1265.8151    41.825838    41.825838    83.651675 
   13400     1236.654   -24022.091   -25300.732    154.47077   -847.46437   -78.501061    1389.3777    41.831864    41.831864    83.663728 
   13500    1223.1925   -24017.787   -25282.509    281.10653    848.67299   -412.60229     407.2489    41.838691    41.838691    83.677382 
   13600     1230.726   -24013.324   -25285.835   -331.78077    510.86264   -747.41144    -758.7935    41.845753    41.845753    83.691505 
   13700    1226.6353   -24008.762   -25277.044   -201.62525    230.05792   -451.96188   -382.97179    41.851442    41.851442    83.702884 
   13800    1222.1051   -24004.163   -25267.761   -289.69846   -621.14461     555.5252   -803.47596    41.856443    41.856443    83.712885 
   13900    1220.8272   -23999.428   -25261.704   -162.99227   -378.14356   -135.93519    25.101958    41.860995    41.860995    83.721991 
   14000    1199.1123   -23994.616    -25234.44    331.08328    501.92993   -280.71323    772.03315    41.865376    41.865376    83.730752 
   14100    1207.9344   -23989.678   -25238.624    228.42627    530.30107    -52.72799    207.70573    41.870141    41.870141    83.740282 
   14200    1198.3626   -23984.672   -25223.722    414.57851    586.85519    515.91272    140.96763    41.875263    41.875263    83.750526 
   14300    1200.0969   -23979.607   -25220.449    277.94569    1187.8654   -225.22271   -128.80562    41.880858    41.880858    83.761716 
   14400    1199.0877   -23974.497   -25214.296    455.34692    655.90003    123.08512    587.05562    41.886571    41.886571    83.773142 
   14500    1186.1039   -23969.341   -25195.715    502.05862    565.24281   -759.96406    1700.8971    41.893249    41.893249    83.786497 
   14600    1179.1355   -23964.087   -25183.256    354.55092    1186.3914   -454.53075    331.79208    41.901009    41.901009    83.802017 
   14700    1197.3342   -23958.686   -25196.672   -255.33522   -538.77087    223.05978   -450.29458       41.909       41.909    83.817999 
   14800    1181.6511    -23953.25    -25175.02      92.0452    23.196635    5.2781613     247.6608    41.915575    41.915575     83.83115 
   14900    1188.7287   -23947.792    -25176.88   -284.14483    108.19384   -610.20821   -350.42012    41.920756    41.920756    83.841513 
   15000     1183.147   -23942.291   -25165.609   -124.74213    345.30759   -553.81227   -165.72172    41.924993    41.924993    83.849987 
   15100    1187.2708   -23936.642   -25164.223   -217.66431    122.13902    316.07709    -1091.209    41.929389    41.929389    83.858777 
   15200    1174.8716   -23930.892   -25145.653    232.63617    737.77825   -32.400836    -7.468896    41.933898    41.933898    83.867796 
   15300    1164.3795   -23925.113   -25129.025    297.58857    1199.7986     161.4663    -468.4992    41.938542    41.938542    83.877085 
   15400    1173.1037   -23919.286   -25132.219   -14.153864    857.22781   -571.84476   -327.84465    41.943578    41.943578    83.887155 
   15500    1174.9938   -23913.386   -25128.273   -42.381659    483.72755   -1041.2913    430.41877    41.949066    41.949066    83.898131 
   15600    1163.3802   -23907.412   -25110.291    166.04217    484.32689    -315.3245    329.12413    41.955127    41.955127    83.910254 
   15700    1162.7051   -23901.419     -25103.6    167.95007    976.11668    355.12804   -827.39451    41.960909    41.960909    83.921817 
   15800    1177.0475   -23895.398   -25112.409   -344.29373    418.78069   -572.36691   -879.29498    41.966411    41.966411    83.932822 
   15900    1165.2874   -23889.465   -25094.316    238.82554    512.66635    208.43436   -4.6240849    41.970892    41.970892    83.941783 
   16000    1169.4951   -23883.446   -25092.648   -259.00703    466.92647   -911.98976   -331.95781    41.975782    41.975782    83.951563 
   16100    1157.3619   -23877.498   -25074.155    516.75029    951.58703    154.80353    443.86032    41.979687    41.979687    83.959373 
   16200    1177.4104    -23871.49   -25088.876   -159.72499   -56.635941   -265.32698   -157.21206    41.984179    41.984179    83.968359 
   16300    1154.2171   -23865.409   -25058.814    63.234577   -223.36534    377.07078    35.998284    41.988958    41.988958    83.977916 
   16400    1174.7197   -23859.257   -25073.861   -68.407371    443.71881   -214.60224   -434.33869    41.993661    41.993661    83.987322 
   16500     1156.228   -23853.117   -25048.602    370.90535    602.60327    35.365726    474.74706    41.998504    41.998504    83.997009 
   16600    1165.2345   -23846.961   -25051.758    272.03598    142.85166   -231.08377    904.34006    42.003746    42.003746    84.007491 
   16700    1178.3843   -23840.859   -25059.252   -125.32655    469.77183    -1758.474    912.72255     42.00936     42.00936    84.018721 
   16800    1160.8196   -23834.764   -25034.996    -42.75163   -619.70382   -404.49061    895.93954    42.015144    42.015144    84.030289 
   16900    1201.5579   -23828.656    -25071.01   -1280.4825   -1441.7231   -1582.2216   -817.50261    42.020403    42.020403    84.040807 
   17000    1179.5248   -23822.699   -25042.271     -317.573     760.3268   -980.23956   -732.80624    42.022606    42.022606    84.045211 
   17100    1156.7666   -23816.829    -25012.87    314.20342    77.794175    638.20054    226.61555    42.023172    42.023172    84.046343 
   17200    1162.1049   -23810.839   -25012.399    503.29476    713.60322    716.12871    80.152339    42.023871    42.023871    84.047743 
   17300     1185.189   -23804.838   -25030.267   -179.14317    444.33016   -453.86465   -527.89503    42.025387    42.025387    84.050773 
   17400    1185.6472   -23798.911   -25024.813    196.59508   -374.59846     574.1071    390.27661    42.026747    42.026747    84.053494 
   17500    1176.2023   -23793.097   -25009.234    499.89369    760.07393    170.25457    569.35256    42.028607    42.028607    84.057214 
   17600    1179.7469   -23787.261   -25007.062    429.44371    774.67578   -141.60916     655.2645    42.031489    42.031489    84.062977 
   17700    1199.2174   -23781.522   -25021.455   -23.572547    913.38898    -784.8428   -199.26382    42.034975    42.034975    84.069949 
   17800    1202.1996   -23775.931   -25018.947    273.40534      267.502    569.92457   -17.210537    42.038706    42.038706    84.077413 
   17900    1192.8162     -23770.4   -25003.715    114.11467   -588.85013    350.23869    580.95545    42.043046    42.043046    84.086093 
   18000    1183.0691   -23764.898   -24988.134    476.75693    515.40837    350.37936    564.48306    42.047581    42.047581    84.095163 
   18100    1193.7514   -23759.329    -24993.61      389.474    709.84373    481.13845   -22.560183    42.052945    42.052945     84.10589 
   18200    1210.4571   -23753.714   -25005.268   -412.72765   -829.30975   -1182.0306    773.15738    42.059316    42.059316    84.118632 
   18300     1192.173   -23748.188   -24980.837   -180.37994     167.0667   -520.03628   -188.17023    42.064933    42.064933    84.129865 
   18400    1207.2758   -23742.731   -24990.996   -435.46603   -449.04485    157.26757   -1014.6208    42.069107    42.069107    84.138214 
   18500    1207.9026   -23737.324   -24986.237   -24.498953   -165.69539   -298.24371    390.44224    42.071966    42.071966    84.143932 
   18600    1207.9931    -23731.96   -24980.966   -212.39508    153.07377   -698.09728   -92.161732    42.074801    42.074801    84.149603 
   18700    1212.8164   -23726.622   -24980.615   -508.65537   -887.07726     72.70148   -711.59033    42.076897    42.076897    84.153794 
   18800    1219.8188   -23721.317   -24982.551   -496.27878   -972.84796   -264.82883   -251.15956    42.077808    42.077808    84.155617 
   18900    1219.7533   -23716.069   -24977.236   -308.69192   -956.18725   -42.472799     72.58427     42.07736     42.07736    84.154719 
   19000    1220.5749   -23710.938   -24972.954    120.72327    312.82645    401.23994   -351.89657    42.076145    42.076145    84.152289 
   19100    1225.7438   -23705.904   -24973.264    40.369063   -190.12007    660.77073   -349.54347    42.075973    42.075973    84.151945 
   19200     1216.995   -23700.872   -24959.187    305.87399    213.84141    549.33959    154.44097    42.077779    42.077779    84.155558 
   19300    1215.5258   -23695.808   -24952.603       78.711    554.05278    366.24278   -684.16256    42.081195    42.081195     84.16239 
   19400    1221.8628   -23690.821   -24954.168    22.674239    558.01854   -606.72094    116.72511    42.085081    42.085081    84.170163 
   19500    1233.8046    -23685.86   -24961.554   -394.67159   -497.23238   -1187.9219    501.13948    42.089085    42.089085     84.17817 
   19600    1212.9425   -23681.063   -24935.187    840.98292    1413.5163    147.36677    962.06573    42.092376    42.092376    84.184752 
   19700    1226.1077   -23676.294    -24944.03   -165.78363   -453.21606    1069.2288   -1113.3636    42.097398    42.097398    84.194795 
   19800    1222.8358    -23671.54   -24935.893    209.94716   -279.92954    218.34364    691.42739    42.102508    42.102508    84.205016 
   19900     1224.015   -23666.768   -24932.341   -65.422459    564.58905   -285.04557   -475.81086    42.107728    42.107728    84.215456 
   20000    1229.9504   -23662.002   -24933.711   -292.62227   -988.59071   -248.79811      359.522    42.112165    42.112165     84.22433 
   20100    1226.9914   -23657.329   -24925.979   -382.53567   -1050.2769    -276.1565    178.82642     42.11467     42.11467     84.22934 
   20200    1219.9376   -23652.704   -24914.061    249.06978   -14.493335    97.406821    664.29586    42.115145    42.115145     84.23029 
   20300    1243.8378   -23648.129   -24934.197    -217.1358     273.0049    -935.4737    11.061395    42.115201    42.115201    84.230401 
   20400     1240.466   -23643.637    -24926.22    36.072538    235.33185   -717.79731    590.68308    42.114912    42.114912    84.229823 
   20500    1236.5994   -23639.229   -24917.813    588.98219    1161.3372   -171.79259    777.40201    42.115195    42.115195    84.230391 
   20600    1242.7832   -23634.904   -24919.882    180.56241    399.74724     332.1283   -190.18832    42.116868    42.116868    84.233737 
   20700    1241.8235   -23630.657   -24914.643    230.80825   -242.69608    831.83254     103.2883    42.119048    42.119048    84.238095 
   20800    1244.5598   -23626.588   -24913.403    241.33999   -305.40297    732.40321    297.01973    42.121097    42.121097    84.242194 
   20900    1247.9033   -23622.582   -24912.854    212.03261   -346.99273    305.18053    677.91004     42.12314     42.12314     84.24628 
   21000    1265.4941   -23618.512   -24926.972   -215.16458    -104.3622    53.007646   -594.13919    42.125652    42.125652    84.251305 
   21100    1262.3855   -23614.502   -24919.748   -223.61169    614.99037   -945.11165    -340.7138     42.12817     42.12817     84.25634 
   21200    1247.7464   -23610.547   -24900.657    1.4218721   -502.47643    520.65703   -13.914986    42.130735    42.130735    84.261469 
   21300    1259.3043   -23606.547   -24908.607   -164.20065    75.581328   -324.56831   -243.61496    42.133581    42.133581    84.267162 
   21400    1259.3847   -23602.573   -24904.716   -111.89319    574.19458   -567.01734   -342.85682     42.13649     42.13649    84.272981 
   21500    1250.1405   -23598.683   -24891.268   -24.185163    815.77194   -581.64063   -306.68679    42.139082    42.139082    84.278164 
   21600    1252.2739   -23594.938   -24889.729   -5.6036598   -30.840791    46.121543   -32.091732    42.140454    42.140454    84.280907 
   21700     1255.627   -23591.237   -24889.495    426.89999    844.47199   -458.52007    894.74805    42.141719    42.141719    84.283439 
   21800    1256.8589   -23587.499   -24887.031    210.03268    -700.7391   -420.04127    1750.8784     42.14477     42.14477    84.289539 
   21900    1270.2348   -23583.723   -24897.085   -156.70542   -346.89799   -540.63983    417.42157    42.148519    42.148519    84.297038 
   22000    1274.1395   -23579.976   -24897.375   -314.67126   -426.43105    206.02193   -723.60466    42.152001    42.152001    84.304002 
   22100    1273.3852   -23576.329   -24892.949   -332.68268    -59.34094   -1009.7965    71.089388    42.154125    42.154125    84.308251 
   22200    1272.0366   -23572.861   -24888.086   -67.266724    659.94309   -1332.5114    470.76809    42.154588    42.154588    84.309175 
   22300    1264.2997   -23569.398   -24876.623    480.34908   -231.80563    715.15383    957.69905    42.155165    42.155165     84.31033 
   22400    1267.9194   -23565.923   -24876.891    387.86936     465.1327    174.57783    523.89755    42.157028    42.157028    84.314055 
   22500    1266.1781   -23562.518   -24871.685    189.31848    256.93136   -764.76815    1075.7922    42.159544    42.159544    84.319088 
   22600    1266.1416    -23559.09    -24868.22    402.44272    524.84312    -413.1649    1095.6499    42.162554    42.162554    84.325107 
   22700    1269.7658   -23555.629   -24868.506   -50.660754   -82.773637    198.38007    -267.5887    42.166593    42.166593    84.333186 
   22800    1278.8304   -23552.126   -24874.376   -292.98684   -376.32551   -890.35317    387.71816    42.170701    42.170701    84.341402 
   22900    1269.5757    -23548.72     -24861.4   -303.33453    536.77678   -530.49004   -916.29033    42.173818    42.173818    84.347635 
   23000    1272.2147   -23545.381    -24860.79   -209.70117    99.505564   -159.26331   -569.34578    42.175596    42.175596    84.351192 
   23100    1275.8566   -23542.028   -24861.202    -228.5902    686.84057    -82.14412   -1290.4671    42.176528    42.176528    84.353056 
   23200     1271.769   -23538.866   -24853.814     57.19824   -83.016652   -218.65575    473.26712    42.175534    42.175534    84.351069 
   23300    1283.3881   -23535.805   -24862.766    179.44543    1536.2292   -31.127915   -966.76502    42.173659    42.173659    84.347318 
   23400    1270.0475   -23532.895   -24846.063    289.35167    407.25449    315.18421    145.61631    42.171723    42.171723    84.343445 
   23500    1284.1923   -23530.023   -24857.816     206.4175   -108.70584    879.88287   -151.92453    42.170585    42.170585     84.34117 
   23600    1284.2593   -23527.095   -24854.958    310.33254    170.32736    618.66879    142.00148    42.171148    42.171148    84.342297 
   23700    1290.6982   -23524.229   -24858.749     282.3535    623.17093    84.415951    139.47361    42.173092    42.173092    84.346183 
   23800    1279.7751   -23521.396   -24844.622    367.46581    1046.5786    383.57355   -327.75469    42.176187    42.176187    84.352373 
   23900    1285.5043   -23518.592   -24847.741    375.86458    399.36536   -112.31455    840.54293    42.180209    42.180209    84.360418 
   24000    1284.1748    -23515.96   -24843.735    110.45912    91.423811   -572.93779    812.89134    42.184565    42.184565     84.36913 
   24100    1282.3311    -23513.37   -24839.239    279.16744   -352.76898    -127.9313    1318.2026    42.188963    42.188963    84.377927 
   24200    1286.8868   -23510.696   -24841.275   -557.38269   -130.85801   -919.66799   -621.62207    42.194083    42.194083    84.388166 
   24300    1283.1118   -23508.122   -24834.798   -141.14539    432.06328    233.33372   -1088.8332    42.197273    42.197273    84.394546 
   24400    1291.0245   -23505.541   -24840.398    -287.2536   -276.23579    332.69918   -918.22418     42.19898     42.19898    84.397961 
   24500    1309.6224   -23503.045   -24857.131   -745.92777   -65.462102   -1592.4203   -579.90094    42.198602    42.198602    84.397204 
   24600    1293.7996   -23500.627   -24838.353    16.457829   -507.15304    543.12889    13.397638    42.196682    42.196682    84.393363 
   24700    1304.1409   -23498.256   -24846.675    -501.0564    450.32308   -1972.9704      19.4781    42.194715    42.194715     84.38943 
   24800    1296.6205   -23495.995   -24836.638     407.6165     601.4859    7.6513893    613.71221    42.191895    42.191895    84.383791 
   24900    1285.8218   -23493.778   -24823.256    520.45545    519.54754    1231.0472   -189.22839    42.189937    42.189937    84.379874 
   25000    1310.6346   -23491.484   -24846.618    20.731665    229.29952    467.15851   -634.26304    42.189856    42.189856    84.379712 
   25100    1306.9148   -23489.217   -24840.504    285.49022     135.7275    597.21716      123.526    42.191222    42.191222    84.382444 
   25200    1290.3403   -23486.995   -24821.145    563.25108    841.69396    905.79125    -57.73196    42.194468    42.194468    84.388935 
   25300    1285.4679   -23484.782   -24813.894    486.36354    490.43577     268.1133    700.54155    42.199743    42.199743    84.399486 
   25400    1294.3014   -23482.444    -24820.69   -154.40949   -604.49132    821.14829   -679.88545    42.206489    42.206489    84.412979 
   25500    1300.6725   -23480.115   -24824.948   -309.08119   -815.60699    637.06605   -748.70262    42.212264    42.212264    84.424528 
   25600    1299.7135   -23477.821   -24821.662    -285.3283    146.98177   -155.90163   -847.06505    42.216647    42.216647    84.433294 
   25700    1307.5651    -23475.52    -24827.48   -485.78219   -185.15964   -790.16512    -482.0218    42.219383    42.219383    84.438766 
   25800    1293.2857   -23473.349   -24810.545   -197.57234   -530.20076   -140.11216     77.59591    42.219609    42.219609    84.439219 
   25900    1318.5691   -23471.244   -24834.581   -857.72337   -733.37325   -1018.4887   -821.30818    42.217615    42.217615    84.435229 
   26000    1304.6079   -23469.319    -24818.22   -52.760177   -938.37991   -86.600026     866.6994    42.213164    42.213164    84.426327 
   26100    1301.9557   -23467.437   -24813.597    274.18764    612.72693    643.38827   -433.55226    42.208096    42.208096    84.416192 
   26200    1325.3715   -23465.573   -24835.944   -245.36232   -1084.0044    279.27237    68.645106    42.204205    42.204205     84.40841 
   26300    1311.4011   -23463.869   -24819.795    686.14329    1298.1805    730.54319    29.706152    42.201286    42.201286    84.402572 
   26400    1311.3079   -23462.309   -24818.138    626.59112     164.6573    938.23112    776.88493    42.200658    42.200658    84.401316 
   26500    1313.3827   -23460.844   -24818.819    627.66093    632.80503    -65.26984    1315.4476    42.202588    42.202588    84.405175 
   26600     1324.076   -23459.442   -24828.473   -13.374181    597.57022    -586.5143   -51.178462    42.207102    42.207102    84.414205 
   26700    1303.8545   -23458.062   -24806.185    428.05096    1137.2312   -1320.5784    1467.5001    42.213167    42.213167    84.426334 
   26800    1303.3497   -23456.589    -24804.19    255.34712     494.8251    -1246.841    1518.0573    42.220589    42.220589    84.441179 
   26900    1312.9358   -23455.042   -24812.554   -270.47543   -467.03882    -120.0203   -224.36717    42.227992    42.227992    84.455983 
   27000     1317.558   -23453.578    -24815.87   -468.90971    -952.8918    -495.5363    41.698978    42.233597    42.233597    84.467193 
   27100    1310.0804   -23452.242   -24806.802   -683.68361    -395.0485   -106.21269   -1549.7896    42.236159    42.236159    84.472318 
   27200     1306.381   -23451.018   -24801.753   -655.88222   -427.20819   -860.21854   -680.21992    42.234714    42.234714    84.469427 
   27300    1329.4103   -23449.699   -24824.245   -1056.2021   -1111.9937   -1049.6551   -1006.9576    42.230245    42.230245     84.46049 
   27400    1322.4405   -23448.473   -24815.813   -193.69593    -17.07186   -1198.5251    634.50914    42.223163    42.223163    84.446326 
   27500    1324.1968   -23447.289   -24816.444    103.68957    441.65747    -302.0176    171.42885    42.216077    42.216077    84.432154 
   27600    1323.0957   -23446.175   -24814.192    306.36337    259.71008   -91.622227    751.00225    42.210626    42.210626    84.421252 
   27700    1315.8248   -23445.157   -24805.657    439.93013    1402.8313    658.83956   -741.88049    42.207127    42.207127    84.414254 
   27800    1319.6974   -23444.183   -24808.686    1032.1572   -88.876735    1562.5824     1622.766    42.205885    42.205885     84.41177 
   27900    1325.5089   -23443.315   -24813.828    365.99415     546.1383   -238.62455     790.4687    42.208276    42.208276    84.416553 
   28000    1308.5828   -23442.533   -24795.545     817.8812    1063.3679    1185.8586    204.41711    42.213076    42.213076    84.426153 
   28100     1328.362   -23441.719   -24815.181   -81.998403    113.13955    568.99968   -928.13444    42.220316    42.220316    84.440632 
   28200    1311.0783   -23440.905   -24796.497    247.99272   -869.32846    961.38772     651.9189    42.227822    42.227822    84.455644 
   28300    1321.5902   -23440.189   -24806.649   -458.63185    -75.61951   -264.51568   -1035.7604    42.234269    42.234269    84.468538 
   28400    1319.8136   -23439.523   -24804.147   -310.80966   -638.18414    653.76454    -948.0094    42.238335    42.238335     84.47667 
   28500    1331.3139   -23438.862   -24815.377     -974.095   -1182.5402   -775.37249   -964.37234    42.240655    42.240655     84.48131 
   28600    1311.6521   -23438.157   -24794.342     302.4753    950.27088    216.37357   -259.21854    42.240533    42.240533    84.481066 
   28700    1322.3473   -23437.529   -24804.772   -775.47915   -1277.9722   -891.93503   -156.53024    42.239116    42.239116    84.478232 
   28800    1307.8128   -23436.972   -24789.187    145.02713    243.42872    71.453274     120.1994      42.2348      42.2348      84.4696 
   28900    1334.2935   -23436.261   -24815.857   -344.72058    -1080.674     494.8203   -448.30802    42.229979    42.229979    84.459957 
   29000    1321.0146   -23435.544    -24801.41    275.67571    459.81721    950.81513   -583.60522    42.225206    42.225206    84.450412 
   29100    1305.2366   -23434.927   -24784.479    809.82394    1315.7394    205.42191    908.31048     42.22173     42.22173     84.44346 
   29200    1317.0462   -23434.312   -24796.075    284.94885   -494.26266    106.02611    1243.0831    42.220025    42.220025    84.440049 
   29300    1327.8604   -23433.702   -24806.645    43.911708   -109.81461   -811.51156    1053.0613    42.219566    42.219566    84.439133 
   29400    1323.9458   -23433.146   -24802.042    322.99471    1003.2874   -1255.0286    1220.7253    42.220325    42.220325     84.44065 
   29500    1315.2079   -23432.791   -24792.652    361.17851    2029.2626   -812.54256   -133.18448    42.221565    42.221565     84.44313 
   29600    1328.6173   -23432.462   -24806.189    181.51395    35.276263   -212.34443       721.61    42.223837    42.223837    84.447675 
   29700    1323.2863     -23432.1   -24800.314    82.132402   -329.06176    259.43875    316.02022    42.227862    42.227862    84.455724 
   29800    1342.9617   -23431.651   -24820.209   -551.27381   -316.94966   -916.55422   -420.31755    42.232685    42.232685    84.465369 
   29900      1336.59   -23431.319   -24813.289   -861.36518   -923.05395   -1419.1736   -241.86799    42.235998    42.235998    84.471995 
   30000    1332.4033   -23431.055   -24808.696   -359.42184    551.44132   -506.63785    -1123.069     42.23672     42.23672    84.473439 
   30100    1307.9137   -23430.794   -24783.114    339.50992    968.83295   -209.04991    258.74674    42.236351    42.236351    84.472702 
   30200     1322.097   -23430.447   -24797.432   -396.00757   -1064.1062   -148.07831    24.161845     42.23643     42.23643    84.472861 
   30300    1305.5227   -23430.096   -24779.943    624.59411     1017.186    63.013557    793.58277    42.234998    42.234998    84.469995 
   30400    1333.6947   -23429.713   -24808.689   -564.09645   -316.82543   -211.53414   -1163.9298    42.233763    42.233763    84.467526 
   30500    1318.0556   -23429.341   -24792.147    233.46235    699.06527     291.0999   -289.77813    42.231559    42.231559    84.463118 
   30600     1320.006   -23428.831   -24793.653   -110.40916    248.06707   -89.836776   -489.45779    42.230423    42.230423    84.460846 
   30700     1322.452    -23428.23   -24795.581    92.430209     345.1867   -253.61641    185.72034    42.230115    42.230115     84.46023 
   30800    1320.3033   -23427.645   -24792.775    144.65766    229.01771   -135.27099    340.22627    42.230392    42.230392    84.460783 
   30900    1321.5437   -23427.091   -24793.504    209.24206    832.19254    395.10154   -599.56792    42.231178    42.231178    84.462357 
   31000    1339.5749   -23426.579   -24811.635   -317.19578   -203.12647   -783.42479    34.963926    42.232627    42.232627    84.465255 
   31100    1325.8056   -23426.171    -24796.99   -307.93295   -287.01188    -591.7135   -45.073482    42.233875    42.233875    84.467749 
   31200    1322.4593    -23425.83   -24793.189   0.59604036   -265.81677   -744.21595    1011.8208    42.234381    42.234381    84.468763 
   31300    1314.5819   -23425.562   -24784.777    91.326444    666.15288   -673.23616    281.06261     42.23423     42.23423    84.468459 
   31400    1309.4003   -23425.267   -24779.124    493.82844   -424.35356     1356.455    549.38388    42.234083    42.234083    84.468167 
   31500    1314.6674   -23424.943   -24784.246     218.2596    125.31398    1130.7279    -601.2631    42.234579    42.234579    84.469157 
   31600     1309.247    -23424.52   -24778.218    478.50602    879.52556    500.36911    55.623397     42.23554     42.23554     84.47108 
   31700    1329.1342   -23424.055   -24798.316   -241.14456   -891.00544    361.47267   -193.90092    42.237223    42.237223    84.474446 
   31800    1325.7129   -23423.469   -24794.193   -101.78727    40.918196    -405.2689    58.988883    42.239001    42.239001    84.478003 
   31900    1331.9687   -23422.986   -24800.178   -159.64614   -750.18156   -153.21149    424.45462    42.240091    42.240091    84.480182 
   32000    1328.9111   -23422.676   -24796.706   -573.10275   -1919.6387    -316.5274    516.85786    42.240395    42.240395     84.48079 
   32100    1337.1944   -23422.431   -24805.026   -535.27287   -1715.3459   -449.75636    559.28363     42.23909     42.23909    84.478179 
   32200    1334.9012    -23422.27   -24802.494    -175.2107    99.193269    -1193.509    568.68363    42.236414    42.236414    84.472829 
   32300    1316.3678   -23422.193   -24783.254    367.88967    181.73193      912.439    9.4980883    42.233537    42.233537    84.467074 
   32400    1330.0797   -23422.166   -24797.404     57.01886    328.02394   -95.862815    -61.10454    42.230709    42.230709    84.461419 
   32500    1312.2498   -23422.082   -24778.885    558.57996    214.57167    737.15721      724.011    42.228525    42.228525     84.45705 
   32600    1315.2495   -23421.936    -24781.84    179.61812    885.30335   -513.28799    166.83899     42.22829     42.22829     84.45658 
   32700    1319.1609   -23421.682   -24785.631    392.54222    134.86272    776.47581    266.28813    42.229204    42.229204    84.458408 
   32800    1345.6673   -23421.485    -24812.84   -216.57244    -259.5952     409.2197   -799.34182    42.231107    42.231107    84.462214 
   32900    1314.6897    -23421.39   -24780.716    413.24267    49.508262    1455.7924   -265.57267    42.233755    42.233755     84.46751 
   33000    1316.9831   -23421.239   -24782.936    173.26941    513.64513     762.0024   -755.83929     42.23756     42.23756    84.475119 
   33100    1330.6747   -23421.021   -24796.875   -524.08348   -712.80652   -29.601107   -829.84283    42.241171    42.241171    84.482341 
   33200    1321.1665   -23420.882   -24786.905   -202.22408    895.99344   -528.57805   -974.08762    42.242788    42.242788    84.485576 
   33300    1326.1949   -23420.737   -24791.959   -447.19192    -174.1672   -978.81802   -188.59055    42.243063    42.243063    84.486125 
   33400     1308.739    -23420.64   -24773.813    166.60098    5.5975394    87.172932    407.03247    42.241558    42.241558    84.483115 
   33500    1329.2609   -23420.429   -24794.821   -391.60488   -653.85738    326.19875   -847.15601    42.240008    42.240008    84.480015 
   33600    1337.6575   -23420.253   -24803.326   -451.81782   -69.988168   -891.92831   -393.53698    42.238009    42.238009    84.476018 
   33700    1326.2769   -23420.155   -24791.461    100.06281    556.07081   -16.778017   -239.10436    42.235509    42.235509    84.471019 
   33800    1315.7795   -23420.145   -24780.598     644.3795    1542.6708    510.68604    -120.2183    42.233238    42.233238    84.466475 
   33900    1327.2459   -23420.169   -24792.477    170.73344    580.18408    -577.0854    509.10164    42.232533    42.232533    84.465065 
   34000    1330.9484   -23420.249   -24796.386    218.56058    872.55609   -932.45082    715.57647    42.232494    42.232494    84.464988 
   34100    1332.5603   -23420.437    -24798.24   -90.411831    176.43094   -199.31188   -248.35454    42.233105    42.233105    84.466211 
   34200    1317.9018   -23420.696   -24783.343    350.11358    279.92685    824.74701   -54.333127    42.234193    42.234193    84.468386 
   34300    1330.2688    -23420.86   -24796.294   -101.84782   -117.87676   -242.85882    55.192121    42.237035    42.237035     84.47407 
   34400    1303.2126   -23420.911    -24768.37    534.07246    142.58102    1294.8142    164.82214    42.240669    42.240669    84.481337 
   34500    1326.3245   -23420.884    -24792.24   -346.57123    -894.9084    46.666125   -191.47142    42.244549    42.244549    84.489098 
   34600     1326.842   -23420.907   -24792.798   -264.02422   -821.68644   -481.70882     511.3226     42.24691     42.24691     84.49382 
   34700    1322.8521   -23420.835     -24788.6   -147.64693   -163.89662   -526.81779    247.77361    42.248164    42.248164    84.496328 
   34800    1340.6352   -23420.713   -24806.865   -799.60854    -1524.706   -120.09093   -754.02872    42.248545    42.248545     84.49709 
   34900    1330.2863   -23420.641   -24796.093   -662.41102   -1540.5829   -719.33039    272.68023    42.246878    42.246878    84.493756 
   35000    1329.9832   -23420.645   -24795.784   -279.64556   -1324.0359   -219.05684    704.15606    42.242793    42.242793    84.485587 
   35100    1326.5899   -23420.666   -24792.297    230.37661   -224.93699   -139.30572    1055.3725    42.237509    42.237509    84.475018 
   35200    1329.7732    -23420.67   -24795.592    200.28404    132.00224    1020.8967   -552.04678     42.23264     42.23264     84.46528 
   35300     1317.562   -23420.688   -24782.984    777.23143    818.18913    1452.2472    61.257972    42.228637    42.228637    84.457275 
   35400    1323.6183   -23420.645   -24789.203    425.07862   -519.87405    569.39352    1225.7164    42.227523    42.227523    84.455045 
   35500    1337.2175   -23420.702    -24803.32    15.660397    783.49439    156.64221   -893.15541    42.228256    42.228256    84.456512 
   35600     1326.621   -23420.892   -24792.554    267.36009    1075.1755   -368.57079    95.475529     42.22972     42.22972    84.459439 
   35700    1328.7046   -23421.271   -24795.088    229.21835    -560.0786    650.55919    597.17447    42.231408    42.231408    84.462817 
   35800    1338.3702   -23421.673   -24805.484   -166.70289    135.79581   -627.26603   -8.6384392    42.233919    42.233919    84.467838 
   35900    1324.0796   -23422.119   -24791.154    17.659985   -169.38502   -388.72992     611.0949    42.236048    42.236048    84.472097 
   36000    1333.2527   -23422.574   -24801.093   -303.42557   -451.33791    -27.44061   -431.49819    42.237814    42.237814    84.475629 
   36100    1313.6098   -23423.049   -24781.258    164.61165    114.24941    511.74167   -132.15613    42.238579    42.238579    84.477159 
   36200    1323.5426   -23423.381   -24791.861    176.62949    824.20311    29.914746   -324.22939    42.239304    42.239304    84.478608 
   36300    1329.1678   -23423.716   -24798.012   -318.49371   -696.29791    590.67242   -849.85565    42.239835    42.239835    84.479669 
   36400    1326.7783   -23424.172   -24795.997   -134.57361   -292.06125    185.49547   -297.15505    42.238534    42.238534    84.477068 
   36500    1318.3678   -23424.627   -24787.756    202.08394   -236.63553    710.53613    132.35122    42.236253    42.236253    84.472506 
   36600    1321.1103   -23425.033   -24790.998   -104.36892    -453.9644     53.29737    87.560262    42.233882    42.233882    84.467763 
   36700     1313.117   -23425.336   -24783.036    468.09416    874.58064     984.5918   -454.88996    42.231992    42.231992    84.463983 
   36800     1321.068   -23425.477   -24791.398   -151.36246   -520.01916    243.28456   -177.35276    42.231552    42.231552    84.463104 
   36900    1314.6746   -23425.543   -24784.853    498.64472    103.36283    1065.7835     326.7878    42.231026    42.231026    84.462052 
   37000    1307.5066    -23425.49   -24777.389    558.98255    759.53566    678.61434    238.79765     42.23169     42.23169     84.46338 
   37100    1336.1077    -23425.27   -24806.741   -328.05337    260.38352    539.09883   -1783.6425    42.233584    42.233584    84.467168 
   37200    1326.6052   -23425.094    -24796.74    19.023026    950.16452   -556.24743   -336.84802    42.235258    42.235258    84.470517 
   37300    1344.4205   -23424.985   -24815.051   -624.74347   -727.93933   -709.58287   -436.70821    42.236212    42.236212    84.472423 
   37400    1333.6211   -23424.936   -24803.836   -392.11912    227.67306   -392.99846    -1011.032    42.235893    42.235893    84.471785 
   37500    1318.9853   -23424.772    -24788.54    187.82245   -978.75745    1263.1986    279.02623    42.235722    42.235722    84.471445 
   37600    1328.3063   -23424.624   -24798.029   -322.85318   -391.89142   -328.78896   -247.87916    42.235639    42.235639    84.471279 
   37700     1325.665   -23424.559   -24795.233    31.690619    -32.57898    230.82489   -103.17405    42.234661    42.234661    84.469322 
   37800    1335.4572   -23424.491    -24805.29   -221.88931    670.32091   -72.779469   -1263.2094    42.234314    42.234314    84.468628 
   37900    1317.8519   -23424.416   -24787.011    282.31797    1174.6399    115.24191   -442.92785    42.233634    42.233634    84.467267 
   38000    1331.5469   -23424.357   -24801.113    101.75797    87.785636    224.98009   -7.4918148    42.233301    42.233301    84.466603 
   38100    1327.9247   -23424.233   -24797.243    21.853085    445.55304   -69.985174   -310.00861    42.234085    42.234085     84.46817 
   38200    1318.2803   -23424.113   -24787.152    304.65401    89.785649   -117.62561    941.80198    42.235281    42.235281    84.470562 
   38300    1338.7524   -23424.019   -24808.224    -345.0666    99.098283   -528.70147   -605.59661    42.236752    42.236752    84.473503 
   38400    1331.8686   -23424.024   -24801.112   -377.03294    414.94383   -758.22042   -787.82221    42.237621    42.237621    84.475243 
   38500    1337.7328   -23424.095   -24807.247   -471.32453   -345.07495   -819.28551   -249.61314    42.237429    42.237429    84.474859 
   38600    1305.2996   -23424.234   -24773.851    523.02561    758.46494    940.72176   -130.10986     42.23654     42.23654     84.47308 
   38700    1311.0361   -23424.288   -24779.836    230.54977    591.63803   -104.16537    204.17664    42.236265    42.236265     84.47253 
   38800    1332.6801   -23424.172   -24802.099   -492.85816   -662.31792   -914.90789    98.651319    42.236194    42.236194    84.472387 
   38900    1334.9708   -23423.993   -24804.288   -386.99483   -1086.3745   -669.62771     595.0177    42.235863    42.235863    84.471727 
   39000    1319.5325   -23423.897    -24788.23    282.40302   -150.24911    257.86085    739.59731    42.235282    42.235282    84.470564 
   39100    1330.0609   -23423.821   -24799.039   -71.594444   -238.99557   -191.38171    215.59394    42.235279    42.235279    84.470558 
   39200    1325.6452   -23423.831   -24794.485    120.40485    408.94552    485.29682   -533.02779    42.235472    42.235472    84.470944 
   39300    1325.9271     -23423.9   -24794.844    129.33138   -1017.7997    501.15402    904.63976    42.236028    42.236028    84.472055 
   39400    1313.9339   -23423.909   -24782.453    160.06869    86.942705    61.233389    332.02998    42.237167    42.237167    84.474334 
   39500    1319.4469   -23423.969   -24788.214    67.657329    46.361204      262.763   -106.15221    42.237762    42.237762    84.475524 
   39600    1320.9166   -23423.991   -24789.756    94.414986   -1454.6335    817.93248    919.94596    42.237961    42.237961    84.475922 
   39700     1322.339   -23423.922   -24791.156    64.415386    -4.535858    -53.86462    251.64664    42.238574    42.238574    84.477147 
   39800    1322.4822   -23423.861   -24791.244   -328.16995    344.34721   -1127.0174   -201.83966    42.239269    42.239269    84.478539 
   39900    1324.0143   -23423.695   -24792.662    -114.4072   -910.15007    281.89542    285.03303    42.239313    42.239313    84.478627 
   40000     1321.708   -23423.484   -24790.066     261.3503   -287.35338    660.43797     410.9663    42.239089    42.239089    84.478178 
   40100    1340.4052   -23423.138   -24809.052   -577.80097   -77.887892   -1318.0861   -337.42889    42.240122    42.240122    84.480244 
   40200    1307.1933   -23422.822   -24774.397    428.28375    906.34519    124.19325     254.3128    42.240673    42.240673    84.481345 
   40300    1335.8313   -23422.497   -24803.682   -653.47775   -1164.7398   -52.917904   -742.77556     42.24109     42.24109     84.48218 
   40400    1327.8724   -23422.204    -24795.16   -202.61333     589.7076   -999.86148   -197.68611    42.240061    42.240061    84.480122 
   40500     1322.185   -23421.943   -24789.018   -15.518472    164.03894    -235.4297    24.835339    42.238481    42.238481    84.476961 
   40600    1326.4224   -23421.651   -24793.108    142.30284    556.10702    1047.0227   -1176.2212    42.236746    42.236746    84.473493 
   40700    1307.1495   -23421.445   -24772.975    508.11325    1362.7152   -650.04411    811.66871    42.234969    42.234969    84.469938 
   40800    1335.7168   -23421.169   -24802.236   -304.76129     325.4192   -106.25328   -1133.4498    42.234427    42.234427    84.468855 
   40900    1325.3102   -23421.069   -24791.376   -27.870304    698.64394   -241.82963   -540.42522    42.233156    42.233156    84.466312 
   41000    1313.5315   -23421.068   -24779.197    746.62974    41.914178    1170.5622    1027.4128     42.23167     42.23167    84.463341 
   41100    1330.9062   -23421.013   -24797.106   -57.051551   -401.54171    926.12647   -695.73941    42.232523    42.232523    84.465045 
   41200    1322.9796   -23420.937   -24788.835    80.637048   -91.412661    180.63401    152.68979    42.234566    42.234566    84.469131 
   41300    1333.2086   -23420.838   -24799.312   -93.113934    107.29378   -339.06711   -47.568471     42.23706     42.23706     84.47412 
   41400    1328.9358    -23420.85   -24794.906   -178.13424   -716.69958   -505.50681    687.80368    42.239111    42.239111    84.478221 
   41500    1341.5359   -23420.899   -24807.983   -628.33136   -621.86456   -1906.4624     643.3329    42.240961    42.240961    84.481922 
   41600    1310.3828   -23420.988   -24775.861    405.27376    642.40732     163.0698    410.34417    42.241722    42.241722    84.483444 
   41700     1309.245   -23421.039   -24774.735    223.62019   -1004.4346    859.18756    816.10762    42.242199    42.242199    84.484398 
   41800    1323.3165   -23421.015   -24789.261   -488.46136   -1559.1765     135.9121   -42.119696    42.241913    42.241913    84.483825 
   41900    1331.4509   -23420.901   -24797.557   -238.19241    140.77196   -549.67678    -305.6724    42.240573    42.240573    84.481145 
   42000    1336.4941   -23420.833   -24802.704   -480.81767   -402.05756   -391.29138   -649.10406    42.238827    42.238827    84.477654 
   42100    1317.9942   -23420.785   -24783.527    51.678371    352.58986   -422.48064    224.92589    42.236193    42.236193    84.472386 
   42200    1332.6355   -23420.771   -24798.652    63.354613   -104.20715   -340.37249    634.64349    42.232977    42.232977    84.465953 
   42300    1350.6015   -23420.858   -24817.315   -366.02989   -723.88034   -467.52878    93.319456    42.229998    42.229998    84.459997 
   42400    1333.9696   -23421.085   -24800.346    299.12207    1045.0943    76.401898   -224.13002    42.227658    42.227658    84.455315 
   42500    1330.8953   -23421.432   -24797.514       440.27    846.36787    723.11177   -248.66963    42.226739    42.226739    84.453478 
   42600    1340.8006   -23421.718   -24808.042   -29.753503    885.77473    344.22479     -1319.26    42.228525    42.228525    84.457051 
   42700    1331.1558   -23422.004   -24798.355    215.80407    1617.5056   -608.68042   -361.41295    42.231807    42.231807    84.463615 
   42800    1322.0058   -23422.307   -24789.197    355.85419    504.69303    278.38433    284.48522    42.236367    42.236367    84.472734 
   42900    1328.9059   -23422.582   -24796.606   -338.50083   -496.39021    69.726479   -588.83876    42.241747    42.241747    84.483495 
   43000    1322.2655   -23422.865   -24790.024   -340.23935   -119.70394   -340.72882   -560.28529    42.245699    42.245699    84.491398 
   43100    1311.4811   -23423.208   -24779.216    30.104654    175.25313   -418.87839    333.93923    42.247145    42.247145     84.49429 
   43200    1318.6742   -23423.599   -24787.044   -243.80922   -340.17884   -699.90117    308.65235    42.246299    42.246299    84.492599 
   43300    1330.0808   -23423.914   -24799.154   -576.36521   -1150.9954   -1095.7087     517.6085    42.243417    42.243417    84.486834 
   43400    1321.3067   -23424.217   -24790.385    -174.4536    35.015046   -804.63672    246.26088    42.238499    42.238499    84.476998 
   43500    1321.1388   -23424.444   -24790.438    283.07881     945.9889    20.218905   -116.97136    42.232589    42.232589    84.465179 
   43600    1328.4601   -23424.609   -24798.172    71.372149   -947.33861   -114.79482    1276.2499    42.227719    42.227719    84.455438 
   43700     1335.154   -23424.834   -24805.319    62.064013    680.19383    731.33356   -1225.3353    42.223514    42.223514    84.447027 
   43800    1324.8174   -23425.087   -24794.884    559.26485   -324.62092    391.13468    1611.2808    42.220549    42.220549    84.441099 
   43900    1337.7825   -23425.408   -24808.611    370.82202   -512.34168     524.0421    1100.7657    42.219546    42.219546    84.439092 
   44000     1333.337   -23425.837   -24804.443    601.75685    303.66525    49.092929    1452.5124    42.220524    42.220524    84.441048 
   44100    1328.4097   -23426.286   -24799.798    478.70441    135.74158    158.11633    1142.2553    42.224161    42.224161    84.448321 
   44200    1332.0065   -23426.698   -24803.929    26.880736   -129.47556    193.73743    16.380338    42.229684    42.229684    84.459368 
   44300    1322.0363   -23427.166   -24794.088    -84.52268   -311.32984   -1017.8707    1075.6325     42.23518     42.23518    84.470361 
   44400    1327.3385     -23427.5   -24799.904   -451.20626   -1127.9355    92.631581   -318.31487    42.240169    42.240169    84.480337 
   44500    1325.5008   -23427.683   -24798.188   -523.59653   -522.74308   -1265.9927    217.94618    42.243548    42.243548    84.487096 
   44600     1332.136   -23427.791   -24805.155   -398.92548    296.69239    -139.2211   -1354.2477    42.244721    42.244721    84.489443 
   44700    1325.3435   -23427.825   -24798.166   -452.97198    -272.8975    7.0182368   -1093.0367    42.244298    42.244298    84.488597 
   44800    1330.6617   -23427.836   -24803.676   -614.77328   -1214.3435    -24.09231   -605.88407     42.24216     42.24216     84.48432 
   44900    1329.7031   -23427.883   -24802.732   -677.40731   -996.10669    -672.7427   -363.37252    42.237787    42.237787    84.475574 
   45000    1330.6783   -23427.898   -24803.755   -246.10951   -1403.6316    409.88079    255.42232    42.231992    42.231992    84.463984 
   45100    1305.8599   -23427.878   -24778.075    811.52344    1473.1916     361.0408    600.33795    42.226658    42.226658    84.453316 
   45200    1317.7231   -23427.795   -24790.257    770.04421    759.92574    594.98684    955.22006    42.223854    42.223854    84.447708 
   45300    1325.6202   -23427.677   -24798.304    356.46249    1015.0857    393.39168   -339.08987    42.223615    42.223615    84.447229 
   45400    1321.2045   -23427.597   -24793.659    139.49876   -61.774083    255.65929    224.61107    42.225118    42.225118    84.450237 
   45500    1330.8982   -23427.428   -24803.512     161.3853    1255.2493   -706.60333   -64.490036    42.228155    42.228155    84.456311 
   45600    1323.5072   -23427.205   -24795.648     172.5809    -1155.382   -245.25492    1918.3796    42.232822    42.232822    84.465644 
   45700    1310.8331   -23426.909   -24782.247    365.13581    292.55603    71.030987     731.8204    42.238397    42.238397    84.476793 
   45800     1312.916   -23426.564   -24784.056   -138.14224   -716.90088    413.18113   -110.70696    42.243948    42.243948    84.487896 
   45900    1314.8725   -23426.111   -24785.626   -79.735661   -281.89069    564.04575   -521.36204    42.248917    42.248917    84.497833 
   46000    1328.4079   -23425.657   -24799.167   -762.49263   -943.69011   -38.894611   -1304.8932    42.251919    42.251919    84.503838 
   46100    1317.3591   -23425.276   -24787.362   -299.82882     169.3825   -144.07992   -924.78905     42.25162     42.25162    84.503239 
   46200    1318.1752   -23424.758   -24787.688   -396.98458    -540.0423    259.63627   -910.54772    42.249766    42.249766    84.499532 
   46300    1328.4343   -23424.268   -24797.805   -424.80941   -2090.5891   -726.96441    1543.1253    42.245858    42.245858    84.491716 
   46400     1320.849   -23423.901   -24789.595   -80.791554   -227.26975    100.80957   -115.91449     42.23993     42.23993    84.479861 
   46500    1334.4266   -23423.528   -24803.261    55.205887    73.541661   -474.14825    566.22425    42.233889    42.233889    84.467779 
   46600    1336.8393   -23423.182    -24805.41   -158.57083   -163.78628    171.32427   -483.25049     42.22929     42.22929    84.458579 
   46700    1338.3842   -23423.062   -24806.886    227.54313   -168.98973    1082.7073   -231.08815    42.224719    42.224719    84.449438 
   46800    1335.4011   -23423.037   -24803.777     418.6746    742.96205    173.97817    339.08358    42.221911    42.221911    84.443821 
   46900    1331.9281   -23423.111   -24800.261    464.58461    734.94755     325.3456    333.46068    42.221718    42.221718    84.443437 
   47000    1330.2316   -23423.254   -24798.649    492.00743    393.04868    462.95481    620.01881    42.224715    42.224715    84.449431 
   47100    1322.9877   -23423.401   -24791.306    256.89704    419.67105   -186.56375    537.58381    42.230215    42.230215    84.460429 
   47200    1331.4433   -23423.654   -24800.303    165.80416    272.86043    156.65711    67.894949    42.236261    42.236261    84.472522 
   47300    1314.6264    -23423.85   -24783.111   -118.43357   -857.14215    558.35159   -56.510156     42.24296     42.24296     84.48592 
   47400    1341.6529   -23423.929   -24811.134   -617.11256   -1329.3116    109.58014   -631.60627     42.24885     42.24885      84.4977 
   47500    1327.4375   -23424.104    -24796.61    -698.3736   -352.14223   -1811.8091    68.830534    42.252327    42.252327    84.504653 
   47600    1330.6759   -23424.252   -24800.107   -864.32735   -991.64914   -281.44285   -1319.8901    42.252826    42.252826    84.505652 
   47700     1325.559   -23424.405    -24794.97   -943.20142   -375.20255   -1675.7053   -778.69643    42.249907    42.249907    84.499813 
   47800    1330.3553   -23424.572   -24800.096   -579.51113   -80.672792   -1091.1326   -566.72802    42.243227    42.243227    84.486453 
   47900    1340.0897   -23424.733   -24810.321   -707.45972   -324.86781   -1256.9855   -540.52583    42.234483    42.234483    84.468966 
   48000    1316.0939   -23424.937   -24785.715    438.26382    1362.8857   -242.95334    194.85911    42.224766    42.224766    84.449533 
   48100    1324.6999   -23425.108   -24794.784    390.71342    686.68701    113.50807    371.94517    42.216875    42.216875    84.433749 
   48200    1324.4521   -23425.267   -24794.686    969.06725    1370.2987     247.9696    1288.9335    42.211452    42.211452    84.422905 
   48300    1313.1081   -23425.412   -24783.103    1558.7515    2245.7869    924.40777    1506.0598    42.209879    42.209879    84.419759 
   48400    1334.1436   -23425.697   -24805.138    662.71525   -298.68353    1382.0604    904.76889    42.212658    42.212658    84.425317 
   48500    1339.4351   -23426.036   -24810.948    445.92391    1366.8074   -326.00514    296.96945    42.218388    42.218388    84.436776 
   48600    1331.4683   -23426.464   -24803.138    256.50792    145.38118   -143.76438    767.90698    42.225883    42.225883    84.451767 
   48700    1332.7477   -23426.806   -24804.803   -249.11675   -348.93111     264.5959   -663.01505    42.235167    42.235167    84.470334 
   48800    1323.0945   -23427.135   -24795.151   -443.96032   -384.81838     -652.345    -294.7176    42.243842    42.243842    84.487684 
   48900    1319.1953    -23427.44   -24791.425   -589.23606   -1403.9403    152.10716   -515.87507    42.250467    42.250467    84.500933 
   49000      1341.19   -23427.623   -24814.349   -1247.4405   -1817.6954   -1310.5124   -614.11376    42.254262    42.254262    84.508524 
   49100    1332.6856   -23427.813   -24805.746   -994.33554   -802.14997   -1038.9697    -1141.887    42.254097    42.254097    84.508194 
   49200    1331.3212   -23428.008    -24804.53   -920.20583   -1133.2035    319.74395    -1947.158    42.250147    42.250147    84.500294 
   49300    1305.4311   -23428.216   -24777.969    56.392075    503.86098    511.04804    -845.7328    42.242429    42.242429    84.484857 
   49400    1325.5716   -23428.269   -24798.847    236.25349   -978.60022    1050.4193    636.94138    42.233981    42.233981    84.467961 
   49500      1319.48     -23428.4   -24792.679     797.7204    317.69555    1048.9043    1026.5613    42.226037    42.226037    84.452074 
   49600    1318.2504   -23428.504   -24791.511    483.70639    1089.4818    409.39207   -47.754707    42.220371    42.220371    84.440742 
   49700    1330.2739   -23428.478   -24803.917    531.13191    1252.0322     71.87488    269.48862     42.21784     42.21784    84.435681 
   49800    1331.4829   -23428.581   -24805.271    369.72119    99.988562    427.33902    581.83599    42.218028    42.218028    84.436056 
   49900    1332.2425   -23428.766    -24806.24    99.624988   -20.671095    439.40231   -119.85625    42.220154    42.220154    84.440309 
   50000    1326.1818   -23429.034   -24800.242    186.52782    -6.504549    468.16592    97.922101    42.223284    42.223284    84.446567 
Loop time of 1405.89 on 1 procs for 50000 steps with 8000 atoms

Pair  time (%) = 1266.21 (90.0645)
Neigh time (%) = 99.0255 (7.04362)
Comm  time (%) = 8.22836 (0.585278)
Outpt time (%) = 0.641679 (0.0456422)
Other time (%) = 31.7866 (2.26096)

Nlocal:    8000 ave 8000 max 8000 min
Histogram: 1 0 0 0 0 0 0 0 0 0
Nghost:    8219 ave 8219 max 8219 min
Histogram: 1 0 0 0 0 0 0 0 0 0
Neighs:    271342 ave 271342 max 271342 min
Histogram: 1 0 0 0 0 0 0 0 0 0

Total # of neighbors = 271342
Ave neighs/atom = 33.9177
Neighbor list builds = 5000
Dangerous builds = 0
unfix		1

# Melt half the system
region  liquid block INF INF INF INF INF ${nzhalf}
region  liquid block INF INF INF INF INF 10
group	liquid_group region liquid
3988 atoms in group liquid_group

# Heat up one side to Tmelt to make sure it is melted
fix 2 liquid_group npt temp ${Tmelt} ${Tmelt} 1 z 0 0 10 drag 1.0
fix 2 liquid_group npt temp 2000 ${Tmelt} 1 z 0 0 10 drag 1.0
fix 2 liquid_group npt temp 2000 2000 1 z 0 0 10 drag 1.0
run		${eqsteps}
run		50000
Memory usage per processor = 5.95825 Mbytes
Step Temp TotEng PotEng Press Pxx Pyy Pzz Lx Ly Lz 
   50000    1326.1818   -23429.034   -24800.242    186.52782    -6.504549    468.16592    97.922101    42.223284    42.223284    84.446567 
   50100    1341.2453   -23426.859   -24813.642   -194.50823   -1249.0488    350.52077     315.0033    42.223284    42.223284    84.446615 
   50200    1333.2165   -23421.335   -24799.816    322.10697   -213.01004    569.55767    609.77327    42.223284    42.223284    84.446873 
   50300    1334.7466   -23414.876    -24794.94    449.07759   -188.60986    559.53127    976.31135    42.223284    42.223284     84.44746 
   50400    1342.4391   -23409.027   -24797.044    338.10806     111.4392    910.25587   -7.3709069    42.223284    42.223284     84.44829 
   50500    1340.7315   -23403.217   -24789.469    508.08214    360.50162    548.08282    615.66197    42.223284    42.223284    84.449142 
   50600    1348.3215   -23396.957   -24791.057    853.83506    1065.4154    415.56404    1080.5258    42.223284    42.223284    84.450328 
   50700    1354.5557   -23390.344    -24790.89    606.07627    1002.2292    293.37618    522.62344    42.223284    42.223284    84.451985 
   50800    1346.8704    -23383.58   -24776.179    1009.8743    1608.3014    1104.2011     317.1204    42.223284    42.223284    84.453928 
   50900    1363.8159   -23376.734   -24786.854    731.38592    857.68526    1152.8333    183.63925    42.223284    42.223284      84.4561 
   51000    1354.7934   -23369.857   -24770.648    1230.2674    164.04944    1554.3592    1972.3935    42.223284    42.223284    84.458429 
   51100    1376.1632   -23362.879   -24785.766    874.04771    191.86871    1516.9462    913.32823    42.223284    42.223284    84.461491 
   51200    1375.7722   -23355.887   -24778.369    1169.1157    855.29205    1281.9531    1370.1018    42.223284    42.223284    84.465224 
   51300    1370.0442   -23348.852   -24765.412    1513.7798    739.03992    1468.0735    2334.2261    42.223284    42.223284    84.469757 
   51400    1376.6382   -23341.767   -24765.145    1438.6196    1550.1844    1611.2899    1154.3846    42.223284    42.223284      84.4753 
   51500    1377.7102   -23334.756   -24759.243    1553.3864    1066.8497    1868.4213    1724.8882    42.223284    42.223284     84.48166 
   51600    1380.5435   -23327.631   -24755.046    1744.3977    1541.6758    1341.3299    2350.1874    42.223284    42.223284    84.489009 
   51700    1396.3536   -23320.538     -24764.3    1415.4417    1038.7574    2068.3962    1139.1715    42.223284    42.223284    84.497316 
   51800    1392.8585   -23313.403   -24753.551     1683.689    1242.3558    1837.0491    1971.6622    42.223284    42.223284    84.506369 
   51900    1392.1956   -23306.248   -24745.711    1812.8784    2179.8032    1903.3147    1355.5171    42.223284    42.223284    84.516425 
   52000    1405.4469   -23299.077   -24752.242    1540.9661    1007.0702    2393.1685    1222.6596    42.223284    42.223284    84.527117 
   52100    1403.3766    -23291.89   -24742.914     1848.205    1274.0865     2464.133    1806.3954    42.223284    42.223284    84.538408 
   52200    1390.7991   -23284.752   -24722.771    2326.9848    2684.6884    2921.8628    1374.4032    42.223284    42.223284    84.550474 
   52300    1414.9227   -23277.588    -24740.55     2014.845    1584.5674    1586.5743    2873.3934    42.223284    42.223284     84.56336 
   52400    1407.2118   -23270.381    -24725.37    2375.6563    1802.6742    2452.3949    2871.8999    42.223284    42.223284    84.577625 
   52500    1400.8167   -23263.225   -24711.602    2542.9525    1577.2424    2976.7008    3074.9143    42.223284    42.223284    84.593252 
   52600    1407.8974   -23256.043   -24711.741    2480.2683     1324.514    3489.4183    2626.8725    42.223284    42.223284    84.610153 
   52700    1407.8873   -23248.866   -24704.553    2705.7965    1523.6471    3378.0702    3215.6721    42.223284    42.223284    84.628269 
   52800    1428.4706   -23241.617   -24718.587    2171.2853    1129.9573    2933.3466    2450.5522    42.223284    42.223284    84.647778 
   52900    1431.1864    -23234.37   -24714.148    2156.9384    2063.5653    2364.0258     2043.224    42.223284    42.223284    84.668301 
   53000    1426.7173   -23227.142   -24702.299    2337.8272     1876.921    2928.7313    2207.8293    42.223284    42.223284    84.689657 
   53100    1432.1592   -23219.922   -24700.706    2403.9837    1713.8453    2458.2295    3039.8762    42.223284    42.223284    84.711899 
   53200    1435.1594   -23212.639   -24696.525    2257.6971    2410.5922    2024.5267    2337.9724    42.223284    42.223284    84.735223 
   53300    1438.6613   -23205.389   -24692.895    2205.9583    1980.2467    2725.5232    1912.1049    42.223284    42.223284    84.759286 
   53400    1438.5585    -23198.08    -24685.48    2455.7055    2808.9691     2848.687    1709.4603    42.223284    42.223284    84.783929 
   53500    1455.3666   -23190.786   -24695.565    2237.8981     1797.092    2241.9097    2674.6925    42.223284    42.223284    84.809049 
   53600     1463.748   -23183.508   -24696.953    2072.8583    2273.2349    2658.1536    1287.1865    42.223284    42.223284    84.834861 
   53700    1446.5174   -23176.227   -24671.857    2023.2568    1892.1886     2654.383    1523.1989    42.223284    42.223284    84.860915 
   53800    1463.3953   -23168.978   -24682.058    1832.5719    1662.2328    2153.6254    1681.8574    42.223284    42.223284    84.887177 
   53900    1462.7297   -23161.655   -24674.047    2097.3987    2656.4333    2074.1289    1561.6339    42.223284    42.223284    84.913988 
   54000    1449.6242   -23154.368    -24653.21    2379.0436    2781.1219    3237.0798     1118.929    42.223284    42.223284    84.941093 
   54100    1454.4208   -23147.057   -24650.859    2418.6039    3204.4607    3076.3039    975.04728    42.223284    42.223284    84.968075 
   54200    1462.3661   -23139.762   -24651.778    2245.2621    2553.4934    2986.9957    1195.2971    42.223284    42.223284    84.994993 
   54300    1474.9409    -23132.37   -24657.388    2063.6162    2447.0443    3175.7958     568.0084    42.223284    42.223284    85.021761 
   54400    1459.1831   -23125.063   -24633.788    2277.0051    3079.9982     2722.879    1028.1381    42.223284    42.223284    85.048197 
   54500    1467.5099   -23117.798   -24635.132     2494.917    2639.0673    3426.0712    1419.6125    42.223284    42.223284    85.074392 
   54600    1480.2835   -23110.479   -24641.021    2312.1945    3172.2604    1883.3875    1880.9355    42.223284    42.223284    85.100708 
   54700    1479.4196   -23103.191   -24632.839    2102.3314    2035.3379    3447.3375    824.31889    42.223284    42.223284    85.127338 
[...]
   86300    2019.1543   -21998.482    -24086.19    3739.6032     6609.001    5324.3156   -714.50691    42.223284    42.223284     88.18208 
   86400    2003.3569   -21998.901   -24070.276    3805.3206    6138.7656    5957.6603   -680.46422    42.223284    42.223284    88.182398 
   86500    1990.1694    -21999.27    -24057.01    4178.7945     5798.648    6656.8104    80.924876    42.223284    42.223284    88.182448 
   86600    2019.9341   -21999.565    -24088.08    3477.7279    5128.0894    6340.5339   -1035.4396    42.223284    42.223284     88.18244 
   86700     2003.302   -21999.989   -24071.307    4277.2599    5043.8925    6775.9088    1011.9786    42.223284    42.223284    88.182027 
   86800     1990.946   -22000.424   -24058.966    4499.6368    6272.6421    6345.5647     880.7034    42.223284    42.223284    88.181867 
   86900    1993.1644   -22000.888   -24061.724    4328.0446    6137.2366    6545.7544    301.14277    42.223284    42.223284    88.181864 
   87000    2010.2814   -22001.348   -24079.882    4167.5499    5715.6973    5968.1254    818.82681    42.223284    42.223284    88.181814 
   87100    1990.8119   -22001.799   -24060.203    4791.2503    6477.0547    7054.2132    842.48288    42.223284    42.223284    88.181945 
   87200    2017.3475   -22002.145   -24087.985    3608.7537    5635.7312    4842.3349    348.19491    42.223284    42.223284    88.182407 
   87300    1971.5575   -22002.563   -24041.059    5121.0624    6870.7417    7778.3009    714.14465    42.223284    42.223284    88.183033 
   87400    2001.8585   -22002.846   -24072.672    3946.4862    4856.0962    6487.0236    496.33887    42.223284    42.223284    88.183719 
   87500    2015.7541   -22003.098   -24087.291    3702.4648    5676.3419    5415.8149    15.237748    42.223284    42.223284    88.184776 
   87600    1997.3475   -22003.383   -24068.545    4195.5614    6662.5754    6099.6589   -175.55022    42.223284    42.223284    88.186145 
   87700    1999.1544   -22003.617   -24070.647    4322.7628     6037.216    6763.2816     167.7909    42.223284    42.223284    88.187405 
   87800    1981.5054   -22003.652   -24052.434     4309.305    5397.5748    7434.2057    96.134521    42.223284    42.223284    88.188925 
   87900    2003.2541   -22003.608   -24074.876    3777.5393    5976.1265    5856.8097   -500.31833    42.223284    42.223284    88.190446 
   88000    2027.0054   -22003.698   -24099.524    3094.2933    5816.0834     4836.121   -1369.3245    42.223284    42.223284     88.19149 
   88100    2017.8748   -22003.827   -24090.212    3303.3872    4981.9827     5716.554   -788.37524    42.223284    42.223284    88.191976 
   88200    2001.6117   -22004.007   -24073.577    4138.4016    5934.8426     6635.023   -154.66088    42.223284    42.223284    88.192107 
   88300    2001.3272   -22004.149   -24073.425    3922.8499    5647.7737    6909.9471   -789.17113    42.223284    42.223284    88.191944 
   88400    1999.4344   -22004.273   -24071.592      3812.19    5808.9911     6364.529   -736.95005    42.223284    42.223284    88.191217 
   88500    1996.1768   -22004.366   -24068.317    4185.8777    6297.4208     6139.689     120.5234    42.223284    42.223284    88.190195 
   88600    1999.3903   -22004.412   -24071.685    4228.3753    6525.9377    6232.8715   -73.683442    42.223284    42.223284     88.18931 
   88700    2013.6488   -22004.393   -24086.409    3736.9756    5326.7416    6069.8333   -185.64806    42.223284    42.223284    88.188584 
   88800    1996.0181   -22004.433    -24068.22    3878.9371     5731.039    7050.2653   -1144.4929    42.223284    42.223284    88.187872 
   88900    1984.6841   -22004.409   -24056.477    4023.0818    4837.2351    6780.6828    451.32758    42.223284    42.223284    88.187124 
   89000    1995.1183   -22004.381   -24067.237     4233.225    6155.4229    7169.9543   -625.70226    42.223284    42.223284    88.186524 
   89100    2021.0875    -22004.31   -24094.017    3528.0799    4440.5676    6830.2941   -686.62187    42.223284    42.223284    88.185734 
   89200    1991.0165   -22004.312   -24062.927    4157.4285    6267.1975    5876.4169    328.67117    42.223284    42.223284     88.18489 
   89300    2012.6197   -22004.353   -24085.305    3781.0045     5877.935    5800.5789   -335.50033    42.223284    42.223284    88.184063 
   89400     2020.114   -22004.452   -24093.152    3343.9833    4459.4817    5058.2127    514.25559    42.223284    42.223284    88.183267 
   89500    1992.9668   -22004.594   -24065.226    4605.5456    7206.4573    6496.6781    113.50142    42.223284    42.223284    88.182836 
   89600    2016.9142   -22004.666   -24090.059    3336.0375    5921.0731    4190.2141   -103.17474    42.223284    42.223284    88.182596 
   89700    1998.5014   -22004.774   -24071.128    4491.0539    7091.3669    6057.8432     323.9518    42.223284    42.223284    88.182391 
   89800    1999.0359   -22004.865   -24071.772     4056.433    5771.9163    6469.3029   -71.920141    42.223284    42.223284    88.182364 
   89900    1986.0134   -22004.983   -24058.426      4497.74    7051.9103    7052.1844   -610.87462    42.223284    42.223284    88.182266 
   90000    1992.5556   -22005.091   -24065.297    4389.0809    7093.8124    6112.6319   -39.201479    42.223284    42.223284    88.181923 
   90100    2009.5192   -22005.131   -24082.877     4085.174    5318.4515    5963.5589     973.5116    42.223284    42.223284    88.181575 
   90200    1994.2574   -22005.234     -24067.2    4149.5542    6199.4304    5884.4722    364.75991    42.223284    42.223284    88.181457 
   90300    1995.6617   -22005.349   -24068.768     4507.675    7483.8287    6272.8154   -233.61906    42.223284    42.223284    88.181487 
   90400     1986.151   -22005.415       -24059    4679.9491     6828.785    8101.2621   -890.19988    42.223284    42.223284    88.181556 
   90500    1978.4844   -22005.434   -24051.092    4390.5066     6425.617    5944.3968    801.50584    42.223284    42.223284    88.181381 
   90600    1993.7474   -22005.463   -24066.902    4226.4453     6388.569    6462.8745   -172.10755    42.223284    42.223284    88.181538 
   90700    1994.4361   -22005.567   -24067.718    4066.9243    6222.3312    5690.1801     288.2617    42.223284    42.223284     88.18154 
   90800    2002.7647   -22005.693   -24076.456    3788.2485     5377.682     5686.897    300.16634    42.223284    42.223284    88.181514 
   90900    2006.6138   -22005.887   -24080.629    3815.6964    5901.2757    6189.5956   -643.78201    42.223284    42.223284    88.181387 
   91000    1996.2017   -22006.079   -24070.056    4053.0268    5690.0368    7378.1615   -909.11782    42.223284    42.223284    88.180808 
   91100    2001.1764   -22006.105   -24075.226    4291.3382    6707.2205    6406.7613   -239.96704    42.223284    42.223284    88.179816 
   91200    1986.9766   -22006.014   -24060.452    4603.0512    6233.7919    7054.3952    520.96652    42.223284    42.223284      88.1786 
   91300    2015.6026   -22005.865   -24089.901    3812.7684    6429.1509    5870.3705   -861.21613    42.223284    42.223284    88.177275 
   91400    1992.3258   -22005.703   -24065.672    4111.0765    8229.0089    5277.5506     -1173.33    42.223284    42.223284    88.175606 
   91500    1999.1765   -22005.562   -24072.615    4075.4175    6099.6592    5546.0701    580.52331    42.223284    42.223284    88.173449 
   91600    1999.3044   -22005.368   -24072.552    3711.6309    6157.4111    5539.0156   -561.53394    42.223284    42.223284    88.171362 
   91700    1995.1699   -22005.311   -24068.221    4215.4189    6207.2816    6555.1976   -116.22246    42.223284    42.223284    88.169059 
   91800    1987.5717   -22005.205   -24060.259    4038.9873     6477.938    6721.9944   -1082.9706    42.223284    42.223284    88.166666 
   91900    1979.9792   -22005.217    -24052.42    4725.2117     6555.684    6262.6443    1357.3068    42.223284    42.223284     88.16376 
   92000    2004.8156   -22005.118   -24078.001    4689.9491    6998.1267    7429.4743   -357.75365    42.223284    42.223284    88.161051 
   92100    2002.3449    -22004.98   -24075.309     4208.283     6058.419    6448.9971    117.43295    42.223284    42.223284    88.158162 
   92200    1999.7088    -22004.89   -24072.492    4624.9772    6518.1353     7220.053    136.74324    42.223284    42.223284    88.155059 
   92300    1992.4321   -22004.802   -24064.881    4790.7027     6825.618    6749.0763    797.41366    42.223284    42.223284    88.152038 
   92400    2014.9215   -22004.707   -24088.039    3903.1083    5864.0701    6097.2607   -252.00589    42.223284    42.223284    88.149185 
   92500    2013.0181   -22004.677   -24086.041    4068.3602    6700.1939    6062.5012   -557.61441    42.223284    42.223284    88.146378 
   92600    2017.1599   -22004.841   -24090.487    3821.5136    6256.7488    6217.4085   -1009.6165    42.223284    42.223284    88.143394 
   92700    2006.1848   -22005.067   -24079.365    3888.4554    5206.6701    5841.5604    617.13585    42.223284    42.223284    88.140207 
   92800    1999.8758   -22005.237   -24073.012    4263.9443    5928.6866    5975.4982    887.64809    42.223284    42.223284    88.137467 
   92900    1997.2011   -22005.313   -24070.323    4513.8642    6187.0174     7021.415    333.16028    42.223284    42.223284     88.13516 
   93000    1993.2057    -22005.37   -24066.249    4379.5411    5766.4748    7282.0126    90.135903    42.223284    42.223284    88.133133 
   93100    1997.9141   -22005.318   -24071.065    4574.8044    6158.9767    6474.6734    1090.7631    42.223284    42.223284    88.131263 
   93200    2000.7651   -22005.243   -24073.938    4322.6978    6292.0303    5552.9947    1123.0684    42.223284    42.223284    88.129743 
   93300    2005.0223   -22005.208   -24078.305    4265.2959     4999.495    7532.4383    263.95445    42.223284    42.223284    88.128797 
   93400    1989.4433   -22005.315   -24062.303    4419.0876    7094.1258    6816.7155    -653.5786    42.223284    42.223284    88.128126 
   93500    1997.0301   -22005.467     -24070.3    4487.2736    5224.5539    6378.7465    1858.5203    42.223284    42.223284    88.127213 
   93600    1999.1703   -22005.567   -24072.612    4337.2083    5728.6122     6936.147    346.86588    42.223284    42.223284    88.126903 
   93700    1986.9086    -22005.63   -24059.998    4757.4567    7117.0397     6151.366    1003.9644    42.223284    42.223284    88.126812 
   93800    2005.3224   -22005.647   -24079.054    4358.4375    6077.4746    6191.0987    806.73898    42.223284    42.223284    88.127068 
   93900    2004.2479   -22005.644    -24077.94    4140.7452    6041.0604    7095.9945   -714.81946    42.223284    42.223284    88.127543 
   94000    2016.7264   -22005.779   -24090.977    4456.1139    6262.0312    7245.1636   -138.85318    42.223284    42.223284    88.127656 
   94100    2003.7079   -22006.012    -24077.75    4410.5582    6758.1928    7055.1263   -581.64448    42.223284    42.223284    88.127607 
   94200    1973.5318   -22006.228   -24046.765    4873.3502    7049.0319    6666.0371    904.98152    42.223284    42.223284    88.127396 
   94300    1991.2122   -22006.313   -24065.131    4157.8417    5847.9855    6235.7147    389.82487    42.223284    42.223284    88.127292 
   94400    1979.5472   -22006.463    -24053.22    4961.3993    7476.8367    6974.0015     433.3597    42.223284    42.223284    88.127084 
   94500    2004.6197   -22006.567   -24079.247    4059.9485    6523.2964    6692.6755   -1036.1264    42.223284    42.223284    88.127021 
   94600    2000.0725    -22006.71   -24074.689    4325.1908    6307.6317    5582.0811    1085.8597    42.223284    42.223284    88.126887 
   94700    1990.7389   -22006.803   -24065.131    4557.0318    6032.9715    7343.0999    295.02399    42.223284    42.223284    88.127363 
   94800    2015.5744   -22006.901   -24090.908    3883.1772    6620.6227    5242.4391   -213.53007    42.223284    42.223284    88.127862 
   94900    1973.8315   -22007.012   -24047.858    4915.2735    7070.5719    7010.9501    664.29847    42.223284    42.223284    88.128338 
   95000    2005.8083   -22007.002   -24080.911    4369.9124    6977.4821    6970.8964   -838.64132    42.223284    42.223284    88.129247 
   95100    1991.1962   -22006.982   -24065.783    4420.8001    6326.4862    5823.1742    1112.7399    42.223284    42.223284    88.130239 
   95200    1998.5907    -22006.92   -24073.366    4282.0353    5571.8464    6705.7103    568.54925    42.223284    42.223284    88.131788 
   95300    1991.1587   -22006.854   -24065.616    4753.4957    7268.4185    5488.4086    1503.6601    42.223284    42.223284    88.133912 
   95400    1993.6616   -22006.816   -24068.166    4797.6602    8206.7128    6503.9942   -317.72639    42.223284    42.223284    88.136692 
   95500    1988.3565    -22006.84   -24062.705    4597.6808    7517.9403    6009.5937    265.50835    42.223284    42.223284    88.139523 
   95600    2013.2908   -22006.902   -24088.548    3964.2027    6408.1876    6341.9098   -857.48924    42.223284    42.223284    88.142403 
   95700    1993.2304   -22006.906    -24067.81    4341.6557     6379.458      6901.42   -255.91093    42.223284    42.223284    88.145199 
   95800    1994.4836   -22006.935   -24069.135    3852.3543    5644.8276     6324.246   -412.01067    42.223284    42.223284    88.147935 
   95900    1983.5502   -22006.965   -24057.861    4377.5447    5646.6049    7054.0924    431.93679    42.223284    42.223284    88.150402 
   96000    2004.8319   -22006.991   -24079.891    4043.1315    5527.9728    6979.7197    -378.2978    42.223284    42.223284    88.152706 
   96100    1998.6201   -22006.953    -24073.43    4024.0533    5602.4045    6542.0422   -72.286921    42.223284    42.223284     88.15521 
   96200    2004.7973    -22006.94   -24079.804    4184.1567    5977.7437    7364.9243   -790.19784    42.223284    42.223284    88.157801 
   96300    2001.6135   -22006.905   -24076.477    4149.9168    6473.2484    6295.7053    -319.2032    42.223284    42.223284    88.160191 
   96400    1988.6634   -22006.798    -24062.98    4520.9342    5953.3139    6882.6511    726.83767    42.223284    42.223284    88.162563 
   96500    2004.6703   -22006.648   -24079.381    4026.7003    5530.4868    6126.2867    423.32728    42.223284    42.223284    88.165096 
   96600    1996.5263   -22006.521   -24070.834    4041.4592    5282.9346    6676.8477    164.59533    42.223284    42.223284    88.167496 
   96700    2005.0717   -22006.301   -24079.449    3953.9048    5311.6678     6648.915   -98.868598    42.223284    42.223284    88.169922 
   96800    1991.5803   -22006.047   -24065.245     4030.082    5868.8352    6751.8061   -530.39532    42.223284    42.223284    88.172411 
   96900    2009.8323   -22005.765   -24083.834    3633.1688    6579.4134    5563.2629     -1243.17    42.223284    42.223284    88.174768 
   97000    2002.6442   -22005.513   -24076.151    4325.2211     6756.427    5746.5921    472.64416    42.223284    42.223284    88.176872 
   97100    2004.1044   -22005.246   -24077.394    4060.0536    6623.0311    6727.2244   -1170.0947    42.223284    42.223284     88.17922 
   97200    1994.9042   -22004.975    -24067.61    4429.0077    5748.7345    7332.3433    205.94522    42.223284    42.223284     88.18121 
   97300    1996.3252    -22004.77   -24068.875    4288.6468    6436.2051      7422.82   -993.08454    42.223284    42.223284    88.182991 
   97400    1979.6981   -22004.517   -24051.429    4714.4955    7323.8359    6636.6405    183.01018    42.223284    42.223284    88.184465 
   97500    1992.5596   -22004.177   -24064.388     4317.346    5808.5964    7081.7444    61.697273    42.223284    42.223284    88.185966 
   97600    2015.5454    -22003.92   -24087.897    3793.6614     5667.957    5726.0728   -13.045577    42.223284    42.223284    88.187288 
   97700    1977.4294   -22003.685   -24048.252    4536.2055     7329.508    6072.7994    206.30899    42.223284    42.223284     88.18844 
   97800    1988.0904   -22003.325   -24058.915    4252.8201    5821.0166    6430.0679    507.37577    42.223284    42.223284    88.189584 
   97900    1995.0988   -22002.992   -24065.828    4190.2915    6481.4639    6376.1179   -286.70737    42.223284    42.223284    88.190826 
   98000    2004.1187   -22002.685   -24074.847    3939.4517    5421.4896    5705.3042    691.56136    42.223284    42.223284    88.191966 
   98100    2008.3189   -22002.328   -24078.833    4003.4017     5595.324    7019.9675   -605.08635    42.223284    42.223284    88.193256 
   98200     1995.456   -22002.095     -24065.3    4106.0106    5841.4902    6567.8901   -91.348639    42.223284    42.223284    88.194252 
   98300    2003.7047   -22001.871   -24073.606    4087.3289    5892.9583    6726.9045     -357.876    42.223284    42.223284    88.195142 
   98400    2000.9931   -22001.675   -24070.606    4150.4266    6816.2767    5491.5067    143.49633    42.223284    42.223284    88.195884 
   98500    2003.8293   -22001.495   -24073.359    4052.7879    6346.3647    7394.7388   -1582.7396    42.223284    42.223284    88.196428 
   98600    1987.2743   -22001.391   -24056.137    3829.5004     5386.391    5832.9517     269.1583    42.223284    42.223284     88.19635 
   98700    1992.2217   -22001.288    -24061.15    4180.3515    6860.5776    5672.8542    7.6227478    42.223284    42.223284    88.195858 
   98800     2000.099   -22001.185   -24069.192     3574.092    5271.3285    6215.0677   -764.12027    42.223284    42.223284    88.194941 
   98900    2005.2583   -22001.121   -24074.462    4220.4306    5236.5085    6420.8826    1003.9007    42.223284    42.223284    88.193629 
   99000    1999.1262   -22001.048   -24068.048    4266.6109    6313.4853    5863.3102    623.03712    42.223284    42.223284    88.192694 
   99100    2005.5074   -22001.018   -24074.616    3984.0116    5623.4758    6474.0054   -145.44629    42.223284    42.223284    88.192169 
   99200    1996.6513   -22000.984   -24065.426    4123.3961     5503.897     6825.182    41.109195    42.223284    42.223284    88.191496 
   99300    2012.5623   -22000.968   -24081.861    3491.9436    5426.8764    6543.8689   -1494.9146    42.223284    42.223284     88.19073 
   99400    1988.8432   -22001.054   -24057.422    4058.1864    6479.1254    6965.9137   -1270.4799    42.223284    42.223284    88.189511 
   99500    2014.6495   -22001.196   -24084.247    3712.0581    6436.3499    5010.3129   -310.48857    42.223284    42.223284    88.187718 
   99600    1997.5295   -22001.313   -24066.663    4195.8897    6059.5403    6407.1064     121.0224    42.223284    42.223284    88.185757 
   99700    1999.6238   -22001.463   -24068.978    4157.3154    5659.4651    6444.0226    368.45859    42.223284    42.223284    88.183854 
   99800    1997.4085   -22001.558   -24066.782    3943.4646    5762.3797    5587.6586    480.35558    42.223284    42.223284    88.182175 
   99900    1998.7464   -22001.685   -24068.293    4014.9268    5196.8603    6853.4403   -5.5202737    42.223284    42.223284    88.180728 
  100000    2008.8903   -22001.811   -24078.907    3780.5396    6581.7315    5416.0474   -656.15996    42.223284    42.223284    88.179376 
Loop time of 1338.03 on 1 procs for 50000 steps with 8000 atoms

Pair  time (%) = 1209.35 (90.383)
Neigh time (%) = 95.6905 (7.1516)
Comm  time (%) = 7.95296 (0.594379)
Outpt time (%) = 0.622273 (0.0465067)
Other time (%) = 24.4124 (1.82451)

Nlocal:    8000 ave 8000 max 8000 min
Histogram: 1 0 0 0 0 0 0 0 0 0
Nghost:    8148 ave 8148 max 8148 min
Histogram: 1 0 0 0 0 0 0 0 0 0
Neighs:    261955 ave 261955 max 261955 min
Histogram: 1 0 0 0 0 0 0 0 0 0

Total # of neighbors = 261955
Ave neighs/atom = 32.7444
Neighbor list builds = 5000
Dangerous builds = 0
