LAMMPS (13 Jan 2014)
dimension       3
boundary        p p p
units           metal

atom_style	atomic
neighbor	0.3 bin
neigh_modify	every 10 delay 0 check no

# Number of steps for the equilibration steps
variable        eqsteps equal 50000

# Number of steps to run our NPH simulation
variable        simsteps equal 200000

# Our trial melting temperature
variable	T equal 1050.0
variable	T2 equal 2*${T}
variable	T2 equal 2*1050

# Some high temperature to melt the crystal
variable	Tmelt equal 2000.0

#System size
variable	nx equal 4
variable	ny equal 4
variable	nz equal 20
variable	nzhalf equal ${nz}*0.5
variable	nzhalf equal 20*0.5
variable	a equal 4.050
variable	length equal ${nz}*${a}
variable	length equal 20*${a}
variable	length equal 20*4.05

lattice		fcc ${a}
lattice		fcc 4.05
Lattice spacing in x,y,z = 4.05 4.05 4.05

region         box block 0 ${nx} 0 ${ny} 0 ${nz}
region         box block 0 4 0 ${ny} 0 ${nz}
region         box block 0 4 0 4 0 ${nz}
region         box block 0 4 0 4 0 20
create_box     1 box
Created orthogonal box = (0 0 0) to (16.2 16.2 81)
  1 by 1 by 1 MPI processor grid
create_atoms   1 box
Created 1280 atoms

mass		1 26.9815

pair_style	eam/alloy
pair_coeff	* * Al_potential.alloy Al

velocity	all create ${T2} 1337
velocity	all create 2100 1337

# Create a dump file. This can be visualized with
# e.g. OVITO (http://www.ovito.org/)
dump		id all atom 1000 atomsdump

# 1 fs timestep
timestep	0.001
thermo_style	custom step temp etotal pe press pxx pyy pzz lx ly lz

# output every 100th timestep
thermo		100

# Equilibration the whole system to the trial melting temperature
fix		1 all npt temp ${T} ${T} 1 iso 0 0 3 drag 1.0
fix		1 all npt temp 1050 ${T} 1 iso 0 0 3 drag 1.0
fix		1 all npt temp 1050 1050 1 iso 0 0 3 drag 1.0
run		${eqsteps}
run		50000
Memory usage per processor = 3.13549 Mbytes
Step Temp TotEng PotEng Press Pxx Pyy Pzz Lx Ly Lz 
       0         2100   -4001.1805   -4348.3603    13380.762    12898.323    13246.205    13997.757         16.2         16.2           81 
     100    987.56073   -4004.8474   -4168.1146    34580.677    35730.819    35025.604    32985.607    16.236444    16.236444    81.182218 
     200    995.25147   -4011.2676   -4175.8063    20110.038    20325.184    19867.447    20137.482    16.336739    16.336739    81.683697 
     300    946.09487   -4014.7147   -4171.1266    5950.5389     6477.961    5531.6816    5841.9742    16.453285    16.453285    82.266426 
     400    947.17856   -4014.3514   -4170.9424   -4961.4163   -5387.0606   -4485.8443   -5011.3441    16.543124    16.543124     82.71562 
     500    942.93815   -4012.6982   -4168.5882   -10504.642   -10998.953   -11530.885    -8984.087    16.593636    16.593636    82.968178 
     600     912.0785   -4011.3478    -4162.136    -11162.56   -11345.261   -10422.411   -11720.007    16.609484    16.609484    83.047422 
     700    918.84083   -4010.5665   -4162.4727   -9787.0549   -10207.946   -9528.6121   -9624.6064    16.599045    16.599045    82.995225 
     800    928.15075   -4010.0322   -4163.4775   -6841.7437   -7824.7082    -6957.993   -5742.5298    16.570516    16.570516    82.852581 
     900    951.16465   -4009.3187   -4166.5688   -2590.5193   -2371.1483     -3449.65   -1950.7594    16.532787    16.532787    82.663935 
    1000    941.90367   -4008.2687   -4163.9877    2071.7142     2926.795    2254.0335    1034.3139    16.495648    16.495648    82.478242 
    1100    1001.2264   -4006.9883   -4172.5148    4426.0418    4218.5191    4393.7337    4665.8727    16.467808    16.467808    82.339039 
    1200    985.33716   -4005.8516   -4168.7512    6465.3294    6407.2801     5584.011    7404.6972     16.45355     16.45355    82.267748 
    1300    1002.9553   -4005.0081   -4170.8204    6350.1124     5247.834    5385.9577    8416.5455    16.454338    16.454338    82.271691 
    1400    981.49517   -4004.4395    -4166.704    5178.8732    5479.2287    4788.1426    5269.2484    16.468329    16.468329    82.341645 
    1500    976.32671   -4003.9033   -4165.3132    2567.5376    2341.4154    2358.5348    3002.6626    16.490954    16.490954    82.454769 
    1600    1009.4651   -4003.2123   -4170.1008   -1005.8608    -270.1914   -1238.3216   -1509.0694    16.516095    16.516095    82.580474 
    1700     962.9221   -4002.3834   -4161.5772   -2367.9176   -2688.2404   -2196.9645   -2218.5478    16.537117    16.537117    82.685585 
    1800    970.76823   -4001.5182   -4162.0093   -3960.4016   -3423.2763   -3329.2638   -5128.6648     16.55059     16.55059     82.75295 
    1900    978.94362   -4000.6762   -4162.5188   -4244.1396   -4136.4625   -3835.6364   -4760.3199    16.554431    16.554431    82.772156 
    2000    963.78946   -3999.8909   -4159.2282   -3175.8912   -3622.6194   -2885.8015   -3019.2527    16.549385    16.549385    82.746927 
    2100    992.24963   -3999.1221   -4163.1645    -2410.334   -2721.8387   -2858.7316   -1650.4316     16.53801     16.53801     82.69005 
    2200    967.89227   -3998.3251   -4158.3406    173.83717    1023.9231   -387.13283   -115.27878    16.523502    16.523502    82.617509 
    2300    999.91196   -3997.4928    -4162.802    1138.3521    779.58313    1197.2552     1438.218    16.509911    16.509911    82.549555 
    2400    1000.8591   -3996.6643   -4162.1301     2318.824    2969.7966    1986.2053    2000.4703    16.500593    16.500593    82.502967 
    2500    984.51992   -3995.9061   -4158.6706    3415.5922    4254.2921    3257.1216     2735.363    16.497301    16.497301    82.486507 
    2600    1005.3196   -3995.2251   -4161.4283    2372.5076    1927.7378    2046.6558    3143.1292    16.500544    16.500544     82.50272 
    2700    1010.2785   -3994.6136   -4161.6366    1368.8364    1250.5159    2064.3032    791.68992    16.508783    16.508783    82.543913 
    2800    995.26554   -3993.9863   -4158.5274    632.43022    201.29968    1867.4578    -171.4668    16.519958    16.519958    82.599791 
    2900    995.37262   -3993.3552   -4157.9139    -659.9579   -1188.7919   -1664.4697     873.3879    16.531361    16.531361    82.656807 
    3000    998.98301   -3992.6974    -4157.853   -1640.2151   -1958.7615   -2011.2256   -950.65833    16.540466    16.540466    82.702332 
    3100    973.21349   -3992.0166   -4152.9118    -1492.751   -756.26499   -1891.2421   -1830.7461    16.545858    16.545858    82.729288 
    3200    990.61958   -3991.3443   -4155.1172    -1932.663    -2113.449   -1680.4461   -2004.0938    16.546717    16.546717    82.733583 
    3300    998.76865   -3990.6959   -4155.8161   -1606.5305   -2300.3101   -263.03286   -2256.2484     16.54306     16.54306    82.715299 
    3400    1003.6757   -3990.0495   -4155.9809   -648.73869   -2455.1226   -495.66824    1004.5748    16.536411    16.536411    82.682055 
    3500    992.92609   -3989.3839   -4153.5381    671.97321   -198.75105    1886.3865    328.28414    16.529203    16.529203    82.646014 
    3600    990.66834   -3988.7317   -4152.5126    1566.6909    2895.8446    1872.3481   -68.119889    16.523148    16.523148    82.615738 
    3700    1017.3008   -3988.0947   -4156.2787    1148.6148    839.02493    1249.9342    1356.8851    16.519817    16.519817    82.599083 
    3800    1005.4095    -3987.509    -4153.727    1679.0918    1504.6245    3484.8858    47.765253    16.519436    16.519436     82.59718 
    3900    1002.3771   -3986.9476   -4152.6643    1553.1725    1942.9653    2192.3302    524.22195    16.522286    16.522286    82.611428 
    4000    1000.2751   -3986.4147   -4151.7839    1105.7917    788.83903    1054.0116    1474.5246    16.527607    16.527607    82.638034 
    4100    1019.6942   -3985.8721   -4154.4518    -101.3303    86.044487    136.90138   -526.93678    16.534443    16.534443    82.672213 
    4200    994.97289   -3985.3451   -4149.8377   -48.308022    -491.9721    493.76959   -146.72156    16.540599    16.540599    82.702997 
    4300     1007.557   -3984.8077   -4151.3807   -841.83012   -564.51709   -1082.9494   -878.02383     16.54533     16.54533    82.726651 
    4400    1020.1363    -3984.295   -4152.9478   -1214.4812   -1673.5761   -904.52801   -1065.3395    16.547337    16.547337    82.736686 
    4500    1002.1901   -3983.7971   -4149.4829   -448.31949   -451.70644   -855.15258   -38.099457    16.546837    16.546837    82.734186 
    4600    1032.6003   -3983.3037    -4154.017   -904.71049    -292.6769   -517.67168   -1903.7829     16.54451     16.54451    82.722552 
    4700    1044.4981   -3982.8135   -4155.4938   -883.90221   -123.17832   -557.04622   -1971.4821     16.54108     16.54108    82.705398 
    4800    999.06377   -3982.3445   -4147.5134    862.48036    2065.3849    753.82427   -231.76813    16.536989    16.536989    82.684944 
    4900    1041.7596   -3981.8956   -4154.1232    379.34732    139.74244   -14.632792    1012.9323    16.533639    16.533639    82.668196 
    5000    992.99509   -3981.4696   -4145.6352    2050.1212     2033.381    1778.7358    2338.2469    16.532056    16.532056     82.66028 
    5100    1046.5818   -3981.0664   -4154.0912    276.21571   -349.02755   -359.29139    1536.9661    16.532877    16.532877    82.664387 
    5200    1022.5543   -3980.6924   -4149.7449    1004.1625    2825.1202   -53.270786    240.63805    16.534968    16.534968    82.674838 
    5300    1024.2534   -3980.3391   -4149.6725    323.57116    470.07285    82.170259    418.47039    16.538181    16.538181    82.690906 
    5400    1041.2644   -3979.9956   -4152.1413   -415.60295    1378.1943   -1350.5089   -1274.4942    16.541584    16.541584    82.707918 
    5500    1043.9127   -3979.6547   -4152.2383   -503.52412   -595.58849   -1231.3978    316.41392    16.544518    16.544518    82.722589 
    5600    1021.2148    -3979.311    -4148.142   -119.37092   -227.69303   -69.502173   -60.917574    16.546727    16.546727    82.733635 
    5700    1060.4066     -3978.97   -4154.2804   -1601.8708   -1551.3395   -1567.5537   -1686.7192    16.548017    16.548017    82.740084 
    5800    1007.0565   -3978.6312   -4145.1215    75.594787   -193.61835     -1433.39    1853.7927    16.547651    16.547651    82.738257 
    5900    1026.6409   -3978.2683   -4147.9964   -375.17688    668.82577   -1577.0216   -217.33481    16.546578    16.546578    82.732892 
    6000    1036.2759   -3977.9115   -4149.2325   -42.792819    834.82409   -308.26929   -654.93326    16.544672    16.544672    82.723358 
    6100    1038.1995   -3977.5828   -4149.2218   -86.817336   -631.04709      288.463    82.132082    16.542451    16.542451    82.712253 
    6200      1011.79   -3977.2774   -4144.5503    1157.5477    1215.2507    874.60109    1382.7913    16.540412    16.540412    82.702062 
    6300    1062.1576   -3976.9628   -4152.5627   -180.68834    656.39394   -288.49764    -909.9613    16.539841    16.539841    82.699206 
    6400    1050.3495   -3976.6542   -4150.3019    425.95407    661.27784    763.08256   -146.49818    16.540343    16.540343    82.701717 
    6500    1028.2276   -3976.3921   -4146.3825    571.45462    1384.4451    169.88955    160.02918    16.541634    16.541634    82.708168 
    6600    1032.0238   -3976.1163   -4146.7343    579.77139    409.55922    118.78552    1210.9694    16.544123    16.544123    82.720616 
    6700    1039.9065   -3975.8497   -4147.7709   -43.164917   -320.64519   -328.06633    519.21677    16.546956    16.546956    82.734779 
    6800    1031.9784   -3975.6321   -4146.2426    31.487529   -941.92178    153.99877     882.3856    16.549003    16.549003    82.745015 
    6900    1032.1894   -3975.4075   -4146.0529    45.712522   -249.30058    127.96975    258.46839    16.550902    16.550902     82.75451 
    7000    1052.3115   -3975.2128   -4149.1848   -526.70024   -457.15093   -1222.2399    99.290105     16.55175     16.55175    82.758748 
    7100    1037.3547   -3975.0402   -4146.5396   -245.73556    -18.48594   -191.20197   -527.51877    16.551308    16.551308    82.756539 
    7200    1032.0853   -3974.8654   -4145.4936   -333.98313   -95.616633    -807.1366   -99.196167    16.550057    16.550057    82.750284 
    7300    1045.5101   -3974.7019   -4147.5495    299.65125    801.84904   -526.33013    623.43486    16.547808    16.547808     82.73904 
    7400    1037.4162   -3974.5681   -4146.0776    429.07899   -53.459257    82.126091    1258.5701    16.545358    16.545358    82.726791 
    7500    1047.9328   -3974.4243   -4147.6724    368.09889    1369.1153   -417.33365    152.51502    16.543704    16.543704    82.718519 
    7600    1055.8977   -3974.3086   -4148.8735    388.73629    500.52932   0.57294767    665.10658    16.542864    16.542864    82.714321 
    7700    1050.8566   -3974.2159   -4147.9474    432.70383    649.02979    187.21353    461.86816    16.543331    16.543331    82.716654 
    7800    1075.4471    -3974.129   -4151.9259   -517.78212   -1666.5722   -434.18439    547.41028    16.544966    16.544966    82.724831 
    7900     1079.013   -3974.0594   -4152.4458   -495.26534   -1422.7297    173.42223   -236.48858    16.546962    16.546962    82.734809 
    8000    1054.8742     -3974.01   -4148.4057   -198.11899    1959.1612   -2071.8086   -481.70958    16.548687    16.548687    82.743437 
    8100    1041.7685   -3973.9966   -4146.2257   -172.41489   -645.38579   -32.665989     160.8071    16.549806    16.549806    82.749028 
    8200    1027.0018   -3973.9909   -4143.7786    522.74979    2387.2166    -48.88509   -770.08219    16.550424    16.550424     82.75212 
    8300     1031.886   -3973.9756   -4144.5708    -94.03899    269.95411    319.11739   -871.18846    16.550753    16.550753    82.753764 
    8400    1064.1401   -3973.9228   -4149.8504   -822.59434   -1254.8109   -543.53827   -669.43383    16.551024    16.551024    82.755121 
    8500    1067.0644   -3973.8724   -4150.2834   -753.60328   -789.23908   -1689.8635    218.29272    16.550391    16.550391    82.751955 
    8600    1022.2354   -3973.8127   -4142.8125     291.7274   -462.33509    -1429.103    2766.6203    16.549439    16.549439    82.747195 
    8700    1082.1863   -3973.7117   -4152.6227   -911.79814   -1008.9654    -1194.109   -532.31996    16.548936    16.548936     82.74468 
    8800    1093.3837   -3973.6472   -4154.4094   -820.87214   -1881.2068   -1083.5257    502.11606    16.547667    16.547667    82.738337 
    8900    1020.4764   -3973.6024   -4142.3114    1134.1821    2472.3531    812.38831    117.80484    16.546437    16.546437    82.732186 
    9000    1056.7997   -3973.5544   -4148.2685   -2.9395929    -364.9719    263.58389    92.569227    16.546331    16.546331    82.731657 
    9100    1026.4754   -3973.5228   -4143.2236    678.82486    235.85116    1372.0556    428.56779    16.546738    16.546738     82.73369 
    9200    1042.8489   -3973.4814   -4145.8891    294.19791   -1087.6766    2027.5103   -57.239947    16.548023    16.548023    82.740113 
    9300    1072.7808    -3973.441   -4150.7972   -867.75573    -712.0481    316.23358   -2207.4527    16.549729    16.549729    82.748643 
    9400    1038.0967   -3973.4025   -4145.0245   -68.390257   -1168.0022     1541.757    -578.9255    16.550954    16.550954    82.754768 
    9500    1030.3573   -3973.3895    -4143.732   -158.73804    42.894666    1.3201221   -520.42892    16.551224    16.551224     82.75612 
    9600    1020.6091    -3973.373   -4142.1039    717.03562    614.48973    1183.3735     353.2436    16.550717    16.550717    82.753585 
    9700    1045.4393   -3973.3227   -4146.1586   -403.32645   -162.88088   -1015.2781    -31.82037    16.550403    16.550403    82.752015 
    9800    1066.3674   -3973.2642   -4149.5601   -749.14677    442.70414   -1431.3661   -1258.7783    16.549731    16.549731    82.748657 
    9900    1032.8265    -3973.228   -4143.9788    263.70922    414.08187   -504.40119    881.44699    16.548469    16.548469    82.742347 
   10000    1066.0704   -3973.2008   -4149.4475    51.889119   -869.61912    1055.0459   -29.759401    16.547348    16.547348    82.736739 
   10100    1064.5086   -3973.2019   -4149.1904    208.92864     647.1566   -326.77615    306.40547    16.546693    16.546693    82.733464 
   10200    1064.1464   -3973.2076   -4149.1363    71.582568   -234.06831    1372.5614   -923.74543    16.547128    16.547128    82.735639 
   10300    1038.6298   -3973.2137   -4144.9239    598.85426    526.27289     57.55609    1212.7338    16.548372    16.548372    82.741858 
   10400    1041.4048   -3973.2228   -4145.3917   -86.037644   -1172.0812    184.38839    729.57989     16.54992     16.54992    82.749602 
   10500    1038.2676   -3973.2186   -4144.8688    46.675089    419.36679   -297.87958    18.538059    16.551288    16.551288     82.75644 
   10600    1064.3253   -3973.1997   -4149.1579    -819.5637   -1469.0749   -34.238565   -955.37764    16.552124    16.552124    82.760621 
   10700    1038.4488   -3973.1689   -4144.8492   -137.63041   -866.32226    35.562696    417.86832    16.551975    16.551975    82.759877 
   10800    1031.4602   -3973.1289   -4143.6537    246.42362   -736.29252    280.49855    1195.0648     16.55104     16.55104    82.755201 
   10900    1052.6846   -3973.0746   -4147.1083   -190.71834    97.994774    1128.3296   -1798.4794    16.549758    16.549758     82.74879 
   11000    1062.3142   -3973.0143     -4148.64   -398.07888   -2069.3445    494.00879    381.09911    16.548716    16.548716    82.743582 
   11100    1040.6408   -3972.9671   -4145.0097    342.42148   -738.56236    1188.4973    577.32945    16.547656    16.547656    82.738282 
   11200    1072.3989   -3972.9063   -4150.1992   -167.90377   -2022.5548    1505.9792    12.864331    16.547187    16.547187    82.735936 
   11300    1052.8554   -3972.8554   -4146.9174    97.970901    -14.86498    484.13662   -175.35894    16.547314    16.547314    82.736572 
   11400     1045.388    -3972.817   -4145.6444     363.6649    774.17155    1368.1421    -1051.319     16.54783     16.54783     82.73915 
   11500    1061.3079   -3972.7762   -4148.2356   -287.02906   -464.30708    138.62333   -535.40344     16.54903     16.54903    82.745149 
   11600    1074.5352    -3972.758   -4150.4042   -375.17218   -479.07072   -227.04934   -419.39648    16.550019    16.550019    82.750095 
   11700    1067.9401   -3972.7363   -4149.2922   -605.58614    -1566.458   -57.138733   -193.16164    16.551253    16.551253    82.756263 
   11800    1037.4475   -3972.7273    -4144.242    217.44051    256.75957   -571.36136    966.92332    16.552059    16.552059    82.760293 
   11900    1067.1752   -3972.6891   -4149.1185   -326.00853    1676.9792   -1842.6649   -812.33987    16.552947    16.552947    82.764734 
   12000    1060.8773   -3972.6687   -4148.0569   -499.82424    -668.9536     171.9918   -1002.5109    16.553173    16.553173    82.765863 
   12100    1035.0603   -3972.6477   -4143.7677    433.94248    497.24814   -456.82714    1261.4064    16.552519    16.552519    82.762596 
   12200    1049.7342   -3972.6014   -4146.1473   -23.199629    552.83801    -238.3868   -384.05009    16.551746    16.551746    82.758728 
   12300     1067.649   -3972.5702   -4149.0779   -699.96686   -1123.2534    575.38075   -1552.0279    16.550488    16.550488    82.752439 
   12400    1012.1298   -3972.5619   -4139.8909    1379.1733      489.361    1255.8999     2392.259    16.548653    16.548653    82.743267 
   12500    1039.7597   -3972.5451    -4144.442    434.59122   -326.45515    1622.0688    8.1600101    16.547551    16.547551    82.737756 
   12600    1038.0174   -3972.5091    -4144.118    799.19613    590.63358    867.38376    939.57105    16.547344    16.547344    82.736719 
   12700    1045.8952   -3972.4833   -4145.3946     201.5702    336.76001   -452.18613    720.13672    16.547868    16.547868     82.73934 
   12800    1038.2809    -3972.461   -4144.1135    311.08175    19.251855    630.54055    283.45285    16.548965    16.548965    82.744825 
   12900    1051.0631    -3972.447   -4146.2127    14.032507    1227.6423   -7.5817861    -1177.963    16.550278    16.550278    82.751391 
   13000    1056.6141   -3972.4461   -4147.1295   -139.89357   -1949.5632    454.57062    1075.3119    16.551462    16.551462    82.757311 
   13100    1047.3598   -3972.4621   -4145.6155    153.43934   -317.61942    95.343709    682.59374    16.552262    16.552262    82.761312 
   13200    1059.0206   -3972.4782   -4147.5594   -317.75305   -391.61346    501.72337   -1063.3691    16.552736    16.552736    82.763681 
   13300     1032.695   -3972.4938   -4143.2228    232.76981     813.6283   -271.60854    156.28966    16.552753    16.552753    82.763764 
   13400    1060.9264   -3972.4845   -4147.8808   -562.59779   -1773.9942    499.19065   -412.98978    16.552744    16.552744    82.763721 
   13500    1038.1823   -3972.4547   -4144.0909    172.82407    665.61484   -808.63371    661.49106    16.552461    16.552461    82.762305 
   13600    1057.8172   -3972.4238   -4147.3061   -431.29758   -2040.5528    306.69283     439.9672    16.551896    16.551896    82.759479 
   13700    1007.9075   -3972.4101   -4139.0411    1048.4654    1215.8614   -472.14708    2401.6818    16.550776    16.550776    82.753881 
   13800    1058.1829   -3972.3712   -4147.3139   -45.835311    1466.0756   -938.32505   -665.25648    16.550046    16.550046     82.75023 
   13900    1028.5966   -3972.3577   -4142.4091    1032.3432    1607.5842    767.35967    722.08586    16.549256    16.549256     82.74628 
   14000    1061.3712   -3972.3495   -4147.8194   -146.85413    19.232292    158.39131   -618.18598    16.549284    16.549284     82.74642 
   14100    1047.6003   -3972.3581   -4145.5513    13.015688   -197.80701    983.42284   -746.56876    16.549355    16.549355    82.746773 
   14200    1041.6191   -3972.3537   -4144.5581    575.34237    612.74975    561.81252    551.46485    16.549828    16.549828    82.749138 
   14300    1063.4428   -3972.3595   -4148.1718   -443.64738   -405.21216   -281.36793   -644.36204    16.550422    16.550422    82.752108 
   14400    1015.0102   -3972.3904   -4140.1956    606.65371    1947.6765   -717.96614     590.2508    16.550286    16.550286    82.751428 
   14500    1044.0058   -3972.4195   -4145.0184    267.92922   -1007.1863    557.82218    1253.1518     16.54957     16.54957    82.747851 
   14600    1037.9397   -3972.4544   -4144.0505    478.84507    1231.7635   -647.69424    852.46597    16.548601    16.548601    82.743006 
   14700    1052.8329    -3972.456   -4146.5143   -164.04919   -822.41378   -597.88067    928.14689    16.548416    16.548416     82.74208 
   14800    1088.2632   -3972.4604   -4152.3761   -951.89973   -1405.1569   -1223.1587   -227.38362    16.548442    16.548442    82.742209 
   14900     1061.289   -3972.4885   -4147.9447   0.65201885    341.78946   -40.564104    -299.2693    16.548235    16.548235    82.741177 
   15000    1034.1947   -3972.4884   -4143.4653    483.56922    1180.9087    579.09353   -309.29453     16.54875     16.54875    82.743748 
   15100    1071.7434   -3972.4794    -4149.664   -192.60266   -420.35267   -432.91051     275.4552    16.549663    16.549663    82.748316 
   15200     1039.073   -3972.5072   -4144.2906    231.19956    444.08373    319.28711   -69.772147    16.550314    16.550314    82.751572 
   15300    1059.9178   -3972.5379   -4147.7674   -440.95187   -675.24635   -887.78257     240.1733    16.550949    16.550949    82.754746 
   15400    1053.8413   -3972.5874   -4146.8124   -237.89306   -455.01537    1291.8461     -1550.51    16.550881    16.550881    82.754403 
   15500    1078.9374   -3972.6217   -4150.9957    -471.3844   -300.68724    160.71591   -1274.1819     16.55058     16.55058    82.752902 
   15600    1061.1659   -3972.6777   -4148.1136   -189.23926   -2572.2899    1171.8535    832.71863    16.549896    16.549896    82.749479 
   15700    1064.6587   -3972.7579   -4148.7712   -476.07238    54.145204    922.72241   -2405.0847    16.548906    16.548906     82.74453 
   15800     1043.072   -3972.8309   -4145.2755    557.01921    -787.9837    530.65216    1928.3892    16.548018    16.548018    82.740089 
   15900    1039.4645    -3972.898   -4144.7462    305.05007   -318.74034     1612.201    -378.3105    16.547543    16.547543    82.737716 
   16000    1051.8422   -3972.9516   -4146.8461    14.933056    246.93199    652.58163   -854.71446    16.547627    16.547627    82.738134 
   16100       1057.4   -3972.9883   -4147.8016   -207.50281   -69.020387   -1545.5516    992.06353    16.548253    16.548253    82.741267 
   16200    1058.0391   -3973.0311   -4147.9501   -194.46589   -509.29619   -532.00307    457.90159    16.548593    16.548593    82.742965 
   16300    1078.6452   -3973.0546   -4151.3802   -867.98674   -1847.0103    -349.8826   -407.06727    16.548937    16.548937    82.744686 
   16400    1056.4384   -3973.0484   -4147.7028   -267.12811   -148.00068   -871.17699    217.79333    16.549435    16.549435    82.747173 
   16500    1053.1486    -3973.062   -4147.1725   -269.82735   -607.35224    832.31182   -1034.4416    16.549412    16.549412    82.747061 
   16600    1053.0699   -3973.0745   -4147.1719    -149.0726    -502.8131   -73.400532    128.99584    16.549081    16.549081    82.745407 
   16700    1024.7711   -3973.0625   -4142.4815    688.33891    -660.1302     313.6118    2411.5351    16.548898    16.548898    82.744492 
   16800    1091.2026   -3973.0197   -4153.4214   -1010.4033   -694.94728   -1182.3611   -1153.9016    16.549209    16.549209    82.746047 
   16900    1035.2406   -3973.0115   -4144.1613    303.71988   -919.06204   -19.827604    1850.0493    16.548794    16.548794    82.743968 
   17000    1052.3867   -3972.9743   -4146.9588    29.223452    190.58193    728.35349   -831.26506    16.548951    16.548951    82.744756 
   17100    1038.8496   -3972.9647   -4144.7112    323.53132   -366.33002    219.51814    1117.4058    16.548904    16.548904    82.744521 
   17200    1070.5589   -3972.9532    -4149.942   -610.34408    534.75085   -959.70692   -1406.0762    16.549078    16.549078    82.745389 
   17300    1056.2114   -3972.9493   -4147.5661   -324.39815    921.24928   -807.44928   -1086.9945    16.549003    16.549003    82.745015 
   17400    1039.9639   -3972.9566   -4144.8873    120.80037    160.76576    643.24686   -441.61153     16.54876     16.54876      82.7438 
   17500    1072.7877   -3972.9519   -4150.3092   -274.13543    474.89631   -1462.0522    164.74957    16.548812    16.548812    82.744058 
   17600    1044.4552   -3972.9633   -4145.6365    194.96239   -1123.2712    1801.5355   -93.377155    16.549038    16.549038    82.745188 
   17700    1041.6958   -3972.9557   -4145.1727   -45.901314   -272.01214   -858.41473    992.72293    16.549598    16.549598    82.747991 
   17800    1057.8783   -3972.9406    -4147.833   -95.976034    425.28586    138.55859   -851.77256    16.550185    16.550185    82.750926 
   17900    1069.7864   -3972.9326   -4149.7937    -543.0617   -871.68442   -685.40785   -72.092824    16.550695    16.550695    82.753477 
   18000    1046.1322   -3972.9323   -4145.8828    81.636941    1392.6702   -1438.9857    291.22629    16.551015    16.551015    82.755077 
   18100    1054.4109   -3972.9248   -4147.2439   -365.27103   -1443.6565   -9.6041591    357.44762    16.551179    16.551179    82.755894 
   18200    1039.4456   -3972.9209    -4144.766    113.61632   -722.64791    84.542774     978.9541    16.550766    16.550766    82.753831 
   18300    1058.6519   -3972.9028   -4147.9231   -320.28344    538.04155   -836.29706    -662.5948    16.550396    16.550396    82.751981 
   18400    1060.6724    -3972.892   -4148.2463   -516.43104   -1550.4446    940.75007   -939.59862    16.549966    16.549966    82.749832 
   18500    1026.3647   -3972.8744   -4142.5568    399.06569    2868.0836   -364.21863   -1306.6679    16.549393    16.549393    82.746963 
   18600    1072.8397   -3972.8239   -4150.1898   -541.08486   -1103.0284    843.82634   -1364.0525    16.548958    16.548958    82.744791 
   18700    1090.4034   -3972.7928   -4153.0624   -969.65331   -1545.8545   -377.05915   -986.04633    16.548227    16.548227    82.741133 
   18800    1039.2337   -3972.7664   -4144.5763    644.61329   -791.54905    2568.6089    156.78004    16.547739    16.547739    82.738693 
   18900    1081.9275   -3972.7191   -4151.5874   -846.24351   -304.77089   -1236.7776   -997.18205    16.548204    16.548204    82.741018 
   19000    1021.8141   -3972.6804   -4141.6105    917.71928    1644.1472    1404.4235   -295.41288    16.548653    16.548653    82.743266 
   19100    1065.7949   -3972.6329   -4148.8341    -320.3668   -1719.3284    1058.4325   -300.20454    16.549707    16.549707    82.748537 
   19200    1035.4369   -3972.6205   -4143.8028    431.43177    882.26741    981.59246   -569.56457     16.55026     16.55026      82.7513 
   19300    1044.2667   -3972.6214   -4145.2634    270.32035    241.79237   0.69606623    568.47262    16.550722    16.550722    82.753612 
   19400    1078.4095   -3972.6051   -4150.8917   -755.93452   -343.79497    -733.9784   -1190.0302    16.551563    16.551563    82.757816 
   19500    1006.7474   -3972.6166   -4139.0558     1191.765     2029.772    26.640579    1518.8824    16.551727    16.551727    82.758634 
   19600    1076.1122   -3972.6082    -4150.515   -920.16549   -1268.1643   -62.465871   -1429.8663     16.55205     16.55205    82.760251 
   19700    1058.2224   -3972.6206   -4147.5699   -354.09652   -995.99891    429.92742   -496.21807    16.551502    16.551502    82.757512 
   19800    1070.8889   -3972.6223   -4149.6657   -902.79447    913.80119   -3073.5493   -548.63531     16.55071     16.55071    82.753548 
   19900    1039.7419   -3972.6354   -4144.5294    319.57859    568.62762    380.05537    10.052789    16.549289    16.549289    82.746445 
   20000    1059.5762   -3972.6466   -4147.8197   -3.5849965    95.704398   -13.172302   -93.287086    16.548047    16.548047    82.740235 
   20100    1086.1868   -3972.6583   -4152.2307   -564.89891     290.1578   -742.90179   -1241.9527    16.547452    16.547452    82.737261 
   20200    1049.0513   -3972.6964   -4146.1294    359.24876    678.47058    637.14744   -237.87174    16.547222    16.547222    82.736111 
   20300    1056.8858   -3972.7367    -4147.465   -221.52684    207.49598       625.62   -1497.6965     16.54765     16.54765    82.738251 
   20400    1051.3041    -3972.774   -4146.5795     212.9551    115.51219    88.841551    434.51156      16.5483      16.5483    82.741498 
   20500    1038.9286   -3972.7701   -4144.5296     84.36459   -1160.3462   -492.85152    1906.2915    16.549775    16.549775    82.748876 
   20600    1039.3776   -3972.7683    -4144.602    8.3256028    2357.5077    -2292.253    -40.27793     16.55096     16.55096    82.754799 
   20700    1027.0158   -3972.7525   -4142.5426    348.25973    1167.2908   -608.61351    486.10186    16.551689    16.551689    82.758445 
   20800    1017.8117   -3972.6896    -4140.958    839.46584    1178.2177    12.304026    1327.8758    16.552533    16.552533    82.762666 
   20900    1063.6193   -3972.6137   -4148.4552   -918.76949   -935.89042    -1723.134   -97.284016    16.553276    16.553276    82.766378 
   21000    1055.4347   -3972.5404   -4147.0288   -256.43884   -758.72708   -869.12483     858.5354    16.553192    16.553192    82.765961 
   21100    1063.5411   -3972.5028   -4148.3314    -475.5371   -788.28977   -1781.7891    1143.4676    16.552249    16.552249    82.761247 
   21200    1047.5789     -3972.47   -4145.6596   -76.663705   -97.096748    29.179859   -162.07423    16.551047    16.551047    82.755233 
   21300    1000.5618   -3972.4116   -4137.8282    1310.3258    754.21681    2110.9273    1065.8333    16.550343    16.550343    82.751714 
   21400    1056.7686    -3972.344   -4147.0529   -339.31036   -1333.7675    1197.2076   -881.37117    16.550095    16.550095    82.750477 
   21500    1085.7919   -3972.2796   -4151.7868   -447.26948   -281.43473   -131.95422   -928.41949     16.54992     16.54992    82.749598 
   21600    1038.7338   -3972.2741   -4144.0015    173.86161   -80.646165    1571.9439   -969.71294    16.549718    16.549718    82.748591 
   21700    1055.5084   -3972.2559   -4146.7565   -249.55451   -1955.5483    513.37719    693.50754    16.549835    16.549835    82.749177 
   21800    1034.3896   -3972.2311   -4143.2402    216.82702    797.26525    89.274319    -236.0585    16.550056    16.550056     82.75028 
   21900     1053.968    -3972.234   -4146.4799   -302.23793   -901.40361   -203.38737    198.07719    16.549877    16.549877    82.749385 
   22000    1034.5869    -3972.268   -4143.3098    421.41826   -86.895179    1225.0589    126.09103    16.548938    16.548938    82.744692 
   22100    1077.0255   -3972.2819   -4150.3398   -661.38141   -716.55498   -677.75211   -589.83716    16.548497    16.548497    82.742486 
   22200    1034.2497   -3972.2934   -4143.2794    662.44538    153.09334    346.44068    1487.8021    16.548198    16.548198    82.740992 
   22300    1034.8952   -3972.2969   -4143.3896    787.97562     116.5159     1301.359      946.052    16.548325    16.548325    82.741627 
   22400    1052.8068   -3972.2953   -4146.3493    79.359878   -525.67238    701.89759    61.854423    16.549143    16.549143    82.745715 
   22500    1044.8084   -3972.2892   -4145.0208    155.96386   -236.41572    65.063246    639.24404    16.550636    16.550636    82.753181 
   22600    1071.6613   -3972.3044   -4149.4755   -648.94328    1129.4622   -1210.8995   -1865.3925    16.551766    16.551766    82.758831 
   22700    1061.0238   -3972.3374   -4147.7498   -729.07466    369.54424   -1128.9223   -1427.8459    16.552034    16.552034    82.760169 
   22800    1046.4361   -3972.3617   -4145.3624    71.977414    578.00344    578.30655   -940.37774     16.55204     16.55204    82.760202 
   22900    1034.3929   -3972.3838   -4143.3934     247.1743   -104.63508   -446.94467    1293.1026    16.551926    16.551926    82.759628 
   23000    1036.4239   -3972.4116   -4143.7571    392.67526    860.34571    667.21067   -349.53061    16.551461    16.551461    82.757305 
   23100    1035.7541   -3972.4398   -4143.6745    163.51161    265.93986   -511.07562    735.67058    16.550898    16.550898    82.754492 
   23200    1036.9277   -3972.4349   -4143.8637    233.97864    -1169.202   -451.72052    2322.8585    16.550604    16.550604    82.753019 
   23300    1070.9789   -3972.4284   -4149.4866   -297.96762   -421.08526   -567.24551      94.4279    16.550343    16.550343    82.751717 
   23400    1049.8173     -3972.46   -4146.0197    159.13884    293.67378    239.95926   -56.216517    16.549727    16.549727    82.748634 
   23500    1036.8817   -3972.4821   -4143.9033    766.99396    613.05446    1121.9138    566.01361    16.549544    16.549544     82.74772 
   23600    1057.3238   -3972.5056   -4147.3063   -160.19834    1415.4881   -1555.2021   -340.88103    16.549861    16.549861    82.749306 
   23700    1064.4709   -3972.5336   -4148.5159   -206.19821   -1416.9034   -58.583686     856.8925    16.550119    16.550119    82.750593 
   23800    1044.9632   -3972.5707   -4145.3279    -117.3168    520.31735   -529.98691   -342.28083    16.550323    16.550323    82.751614 
   23900    1029.0308   -3972.5733   -4142.6965    450.29862   -1308.5171    1491.4914    1167.9215    16.550614    16.550614    82.753069 
   24000    1049.7513   -3972.5795   -4146.1283    51.324564   -617.19919    336.89057    434.28232    16.550772    16.550772    82.753859 
   24100    1069.6013    -3972.602   -4149.4325   -612.81114    -319.4432    -1260.817   -258.17318    16.550737    16.550737    82.753686 
   24200    1026.1398   -3972.6329   -4142.2781    532.96261    -1389.019    539.52529    2448.3816     16.55041     16.55041     82.75205 
   24300    1070.1805   -3972.6418    -4149.568   -446.17637   -639.74101   -567.82965   -130.95844    16.550554    16.550554    82.752769 
   24400    1040.3235   -3972.6506   -4144.6407   -129.03414     520.0689   -989.78595    82.614634    16.550381    16.550381    82.751903 
   24500    1048.7958   -3972.6891     -4146.08    38.807629   -1494.6178    207.60294    1403.4378    16.549299    16.549299    82.746495 
   24600    1025.8537   -3972.7201   -4142.3181    640.35737    757.46805    1095.1941    68.409947    16.548281    16.548281    82.741407 
   24700    1064.3029   -3972.7088   -4148.6634    -212.6881   -5.3667495   -1126.3114    493.61389     16.54833     16.54833    82.741651 
   24800    1030.2433   -3972.7319   -4143.0556    491.58601    1568.3205   -321.98979    228.42731    16.547802    16.547802    82.739011 
   24900    1040.5457   -3972.7634   -4144.7903     724.9167    1623.6594   -97.547633    648.63835     16.54731     16.54731    82.736552 
   25000    1062.3686   -3972.7832   -4148.4179    61.205073   -30.948807   -310.32211    524.88614     16.54771     16.54771     82.73855 
   25100    1046.4977    -3972.805   -4145.8159    346.39873    963.46892    478.36607   -402.63881    16.548777    16.548777    82.743883 
   25200    1058.4589   -3972.7912   -4147.7795   -305.65454    -145.4782   -164.45869   -607.02674    16.550758    16.550758     82.75379 
   25300    1061.8679   -3972.7885   -4148.3404   -399.91691   -288.00241    724.20469    -1635.953    16.552419    16.552419    82.762097 
   25400     1044.205   -3972.7972    -4145.429   -289.10581    167.55442   -1433.6381    398.76629    16.553389    16.553389    82.766945 
   25500     1052.091   -3972.8073    -4146.743    -341.0959   -172.82828    422.34713   -1272.8065    16.553545    16.553545    82.767724 
   25600    1042.6186   -3972.7958   -4145.1654   -37.075459   -795.23564    302.71274    381.29652    16.553324    16.553324     82.76662 
   25700    1074.7843   -3972.7942   -4150.4815   -678.28903   -433.45754   -1809.4976    208.08809    16.552772    16.552772     82.76386 
   25800    1060.3227   -3972.7988   -4148.0953   -563.64114     -1460.69    23.696281    -253.9297    16.551892    16.551892    82.759462 
   25900    1064.2461   -3972.7931   -4148.7383   -676.89459   -912.85296   -1662.3287    544.49791     16.55079     16.55079    82.753951 
   26000    1044.9867   -3972.8171   -4145.5781     388.1449   -357.52983    1880.4448   -358.48026    16.548848    16.548848    82.744241 
   26100    1037.0149   -3972.8027   -4144.2459    727.23674    335.23637    1302.0778    544.39606    16.547952    16.547952     82.73976 
   26200    1032.8992   -3972.8027   -4143.5654     441.0415     764.6499    270.03979     288.4348    16.547412    16.547412    82.737062 
   26300    1012.0638   -3972.8207   -4140.1389    1024.9101    -971.9379    1665.1953    2381.4731     16.54688     16.54688    82.734398 
   26400    1028.0324   -3972.8081   -4142.7662    821.94029    2209.9271    896.77713   -640.88335    16.547259    16.547259    82.736297 
   26500    1058.3074   -3972.7603   -4147.7237   -318.65404    747.03626   -1577.9303   -125.06812    16.548823    16.548823    82.744115 
   26600    1064.2196   -3972.7006   -4148.6413   -452.48223   -316.45741   -384.57594   -656.41336    16.550672    16.550672    82.753361 
   26700    1054.2303   -3972.6652   -4146.9545   -586.28246   -1350.7469   -1405.6868    997.58633    16.551652    16.551652    82.758259 
   26800    1010.3348   -3972.6557    -4139.688    1001.7768    288.95049    1664.9773    1051.4026    16.551531    16.551531    82.757653 
   26900    1060.5521   -3972.6403   -4147.9747   -283.96643    847.82439   -813.80938   -885.91431    16.551617    16.551617    82.758086 
   27000    1044.1719   -3972.6325   -4145.2589   -109.01028     352.3245    -558.1103   -121.24504    16.551439    16.551439    82.757194 
   27100    1037.3584   -3972.6447   -4144.1446    94.889026    1312.3646   -1848.2635    820.56601    16.550575    16.550575    82.752877 
   27200    1059.4629   -3972.6243   -4147.7786   -231.29286   -153.50311   -796.94902    256.57354    16.549773    16.549773    82.748863 
   27300    1026.4841   -3972.6003   -4142.3024    742.40561    29.249686    916.59001    1281.3771    16.548931    16.548931    82.744657 
   27400    1058.3264   -3972.5665    -4147.533   -162.99157    -190.6341   -148.87413   -149.46648    16.548808    16.548808    82.744041 
   27500    1066.7435   -3972.5398   -4148.8978   -320.48149   -1263.9145    -1290.306     1592.776    16.549015    16.549015    82.745075 
   27600    1042.5174    -3972.517   -4144.8699    178.95783   -610.00626   -428.05544    1574.9352    16.549334    16.549334     82.74667 
   27700    1021.5597   -3972.5136   -4141.4017    868.44337    1543.8333   -1005.5619    2067.0587    16.549613    16.549613    82.748067 
   27800    1043.6756   -3972.5261   -4145.0704    129.63905   -1620.2195    1270.8304    738.30623    16.549898    16.549898    82.749491 
   27900    1067.3636   -3972.5714   -4149.0319   -558.00888   -866.71741   -624.52827   -182.78096     16.54968     16.54968    82.748398 
   28000    1059.0405    -3972.649   -4147.7335   -265.27803   -734.64706    358.79377    -419.9808     16.54891     16.54891    82.744548 
   28100    1052.8359   -3972.7004   -4146.7591    351.02118    507.02931   -877.21492    1423.2492    16.548645    16.548645    82.743226 
   28200    1060.3689   -3972.7789   -4148.0831    -53.97411   -1687.3784    2268.8287   -743.37259    16.548554    16.548554    82.742769 
   28300    1040.9269   -3972.8672   -4144.9571    263.82965   -591.30881    191.76491    1191.0328    16.548707    16.548707    82.743533 
   28400    1015.1398   -3972.9276   -4140.7543    953.53665     364.0092    1195.8643    1300.7364    16.549496    16.549496    82.747482 
   28500    1041.8998   -3972.9452   -4145.1959   -82.107804    613.26397    -1035.268    175.68064    16.550897    16.550897    82.754485 
   28600      1059.27   -3972.9337   -4148.0562   -627.00941    -836.2773   -1526.4245    481.67354    16.552223    16.552223    82.761113 
   28700    1052.7935   -3972.9216   -4146.9733   -469.61387   -1761.4414   -518.00476    870.60452    16.552736    16.552736    82.763682 
   28800    1054.9659   -3972.9448   -4147.3557   -198.03242    1296.0544   -1526.1547     -363.997    16.552023    16.552023    82.760115 
   28900     1034.578   -3972.9539   -4143.9942    65.705412   -801.84603    266.68067    732.28159    16.550899    16.550899    82.754495 
   29000    1036.8145   -3972.9613   -4144.3714    307.24321    739.73861    534.74497   -352.75394    16.549359    16.549359    82.746797 
   29100    1040.0467   -3972.9583   -4144.9027    554.21444    1919.0358    209.73972   -466.13216    16.548093    16.548093    82.740464 
   29200    1063.2543   -3972.9348    -4148.716    -403.0682    279.57576   -121.21361   -1367.5667    16.547655    16.547655    82.738273 
   29300    1070.8604   -3972.9429   -4149.9815   -271.99316    -1358.591   -523.34571    1065.9573    16.546942    16.546942    82.734709 
   29400    1076.5223   -3972.9596   -4150.9343   -373.53458   -2149.7741    504.49808    524.67226    16.546616    16.546616    82.733081 
   29500    1048.4298   -3972.9925   -4146.3228    37.967205    462.97037   -471.12804    122.05928    16.546839    16.546839    82.734197 
   29600    1049.3342   -3973.0381   -4146.5179    206.98711    196.01573   -267.81761    692.76322    16.547326    16.547326     82.73663 
   29700    1041.7898    -3973.083   -4145.3155    295.83618    1073.0102   -804.19956    618.69792    16.548263    16.548263    82.741313 
   29800    1066.3646   -3973.0995   -4149.3948   -591.41002   -334.13548   -370.64464   -1069.4499    16.549807    16.549807    82.749036 
   29900    1024.4161   -3973.1275   -4142.4877    443.15619   -581.33247   -1002.4689    2913.2699    16.550943    16.550943    82.754716 
   30000    1073.6556   -3973.1269   -4150.6277   -897.85517   -1827.9277     88.62489   -954.26275    16.552004    16.552004    82.760018 
   30100    1047.3116   -3973.1205    -4146.266   -500.16139   -1795.9383   -1633.2792    1928.7333    16.552372    16.552372    82.761862 
   30200    1047.1543   -3973.1046   -4146.2241   -482.72475   -258.63164   -1461.0406    271.49797    16.552012    16.552012    82.760061 
   30300    1042.4204   -3973.1106   -4145.4474    60.971499   -999.70942   -724.28858    1906.9125    16.550348    16.550348    82.751738 
   30400    1018.0866   -3973.1148   -4141.4286    712.12993    2297.9817   -1415.5634    1253.9714    16.548385    16.548385    82.741927 
   30500    1044.2941   -3973.0833   -4145.7299    519.32832     1241.605    228.30668    88.073256    16.547253    16.547253    82.736265 
   30600    1081.7705   -3973.0438   -4151.8861   -552.40041   -638.95741   -784.99615   -233.24767    16.547194    16.547194    82.735968 
   30700    1038.9392   -3972.9928   -4144.7541    482.44701    1879.1485    -394.9187   -36.888768    16.547812    16.547812    82.739058 
   30800    1056.7618   -3972.9617   -4147.6695    201.68959     1247.087   -810.88573    168.86751    16.548714    16.548714    82.743568 
   30900    1063.3442   -3972.9413   -4148.7373   -609.52603     579.3055   -613.56859    -1794.315    16.549948    16.549948    82.749742 
   31000    1047.1612   -3972.9218   -4146.0424   -145.46954   -360.76568    361.14744   -436.79037    16.550683    16.550683    82.753413 
   31100    1043.3319   -3972.9244   -4145.4119    256.19629   -143.94382   -159.81417    1072.3469    16.550653    16.550653    82.753267 
   31200    1098.2871   -3972.9066   -4154.4795   -1398.0985   -750.21652   -1558.9537   -1885.1254     16.55085     16.55085    82.754251 
   31300    1047.3851   -3972.9033   -4146.0609   -68.094294   -565.53826   -271.47111    632.72649    16.550407    16.550407    82.752036 
   31400    1055.7968   -3972.9039   -4147.4521    -190.0643   -377.08628    907.81698   -1100.9236    16.549561    16.549561    82.747807 
   31500     1044.299   -3972.9078   -4145.5552    171.48851    -653.7005    1831.3595   -663.19344    16.548481    16.548481    82.742405 
   31600    1027.4242   -3972.9187   -4142.7763    688.45238   -800.74284    1531.1775    1334.9224     16.54742     16.54742    82.737102 
   31700     1039.232   -3972.9068   -4144.7166    574.89601    342.68279    1124.8183    257.18697    16.547122    16.547122    82.735609 
   31800     1062.324   -3972.8793   -4148.5066   -21.138803   -1580.0588    998.58827    518.05411    16.547836    16.547836    82.739178 
   31900    1050.0109   -3972.8343    -4146.426    206.99861    385.15834   -316.31402     552.1515    16.549527    16.549527    82.747634 
   32000    1047.6148   -3972.8285   -4146.0241    203.45358   -1014.3094    1492.1557    132.51443    16.550744    16.550744    82.753718 
   32100    1051.1991   -3972.8375   -4146.6257   -272.21735   -678.33452    169.83586   -308.15338    16.551924    16.551924    82.759619 
   32200    1054.6502   -3972.8056   -4147.1643   -635.42415   -2210.2176   -233.86506    537.81021    16.553248    16.553248    82.766241 
   32300    1063.2312   -3972.7773   -4148.5547   -1196.4395   -976.21799   -1283.1953   -1329.9051    16.553622    16.553622    82.768112 
   32400    1027.5002   -3972.7633   -4142.6334    516.23419    1361.6609    928.22688   -741.18519    16.552399    16.552399    82.761993 
   32500    1046.0951   -3972.7407   -4145.6851    166.65267   -82.275552    1303.2113   -720.97773    16.550878    16.550878    82.754392 
   32600    1077.1061   -3972.7206   -4150.7918   -724.87297   -948.91211    601.05594   -1826.7628    16.549414    16.549414    82.747072 
   32700    1061.9074   -3972.6891   -4148.2476   -380.76298   -687.19958   -742.13186    287.04249    16.548283    16.548283    82.741413 
   32800    1043.4374   -3972.6716   -4145.1765    115.56157    -367.8222   -204.48928     918.9962     16.54705     16.54705    82.735249 
   32900    1039.9411   -3972.6178   -4144.5447    574.62147    435.49997     695.1604    593.20405    16.546703    16.546703    82.733516 
   33000    1051.1943   -3972.5652   -4146.3526    330.65198    1654.8917     110.3179   -773.25368    16.547216    16.547216    82.736082 
   33100    1022.8611   -3972.5228   -4141.6261    1192.0399     1547.314    1315.6093    713.19656    16.548286    16.548286    82.741428 
   33200    1054.6104   -3972.4676   -4146.8197   -367.27862   -1106.4434   -392.27719    396.88471    16.550303    16.550303    82.751513 
   33300    1046.6574     -3972.44   -4145.4773   -125.28108    260.69698   -77.635082   -558.90514    16.551777    16.551777    82.758883 
   33400     1049.706    -3972.395   -4145.9363    -615.8126    1442.1596   -1847.4385    -1442.159    16.552909    16.552909    82.764544 
   33500    1039.8047   -3972.3625   -4144.2668   -238.74297   -139.17065    6.6766897   -583.73496    16.553226    16.553226    82.766132 
   33600    1055.9059   -3972.2828   -4146.8491   -551.28286   -956.98668   -636.01494   -60.846953    16.553565    16.553565    82.767823 
   33700    1063.2962     -3972.21   -4147.9981   -1039.5473   -90.206232   -3054.4056    25.969935    16.553254    16.553254    82.766269 
   33800    1015.3494   -3972.1505   -4140.0118    1054.9694    716.97066    2210.1996    237.73804     16.55185     16.55185    82.759252 
   33900    1053.0344   -3972.0607   -4146.1523   -74.027529   -423.70523   -2062.2325    2263.8551    16.550955    16.550955    82.754775 
   34000    1052.5538   -3972.0182   -4146.0303    131.43477    402.06775    864.50474    -872.2682    16.549524    16.549524    82.747619 
   34100    1058.1186   -3972.0009    -4146.933    282.18261    -1037.599    436.20637    1447.9405    16.548142    16.548142    82.740708 
   34200     1057.901   -3971.9982   -4146.8944    236.42391    176.82633   -71.823708    604.26911    16.547278    16.547278    82.736392 
   34300    1073.4271   -3972.0168   -4149.4798   -151.55696   -2778.9604     1353.035     971.2545       16.547       16.547    82.735001 
   34400    1016.4774   -3972.0605   -4140.1083    1335.3138   -1010.2792    990.93246    4025.2882      16.5472      16.5472       82.736 
   34500    1051.3162    -3972.093   -4145.9005    294.05773    389.06683    206.51804    286.58832    16.548556    16.548556     82.74278 
   34600    1042.1815   -3972.1085   -4144.4058    20.537213   -1121.3043    311.68028    871.23567    16.550871    16.550871    82.754356 
   34700    1074.7279   -3972.1068   -4149.7848   -1179.2518   -723.13835    -1366.991   -1447.6259    16.553092    16.553092    82.765462 
   34800     1044.795   -3972.1056    -4144.835     -239.142   -1930.5531   -333.56294      1546.69     16.55441     16.55441    82.772049 
   34900    1035.9682   -3972.1355   -4143.4056   -119.59739    72.164095    -1833.353    1402.3967    16.554571    16.554571    82.772855 
   35000    1048.9944    -3972.151   -4145.5747   -236.41154    -229.1416   -1001.1687    521.07566    16.553934    16.553934    82.769669 
   35100    1042.9538   -3972.1659   -4144.5909   -383.84858   -1560.6392   -698.42345    1107.5169    16.552525    16.552525    82.762626 
   35200    1078.1085   -3972.1663   -4150.4033   -673.29648   -1339.3911   -304.27493   -376.22342    16.550919    16.550919    82.754594 
   35300    1061.6623   -3972.1873   -4147.7053    301.30745   -202.98122    411.13906    695.76452    16.549355    16.549355    82.746777 
   35400    1074.8885   -3972.2037   -4149.9083   -595.66306    -2915.738    257.12927    871.61955    16.548615    16.548615    82.743074 
   35500    1039.0575   -3972.2267   -4144.0076    433.06268    -285.5112    227.16933    1357.5299    16.548203    16.548203    82.741017 
   35600    1050.2269   -3972.2488   -4145.8762    622.38908    861.88017    635.11302    370.17406    16.548431    16.548431    82.742153 
   35700    1091.2963   -3972.2526   -4152.6698   -875.58144    443.06222   -1209.4954   -1860.3112    16.549999    16.549999    82.749997 
   35800    1018.9347   -3972.2802   -4140.7342    823.81928     823.2184    320.74293    1327.4965    16.551244    16.551244    82.756218 
   35900    1055.5409   -3972.2964   -4146.8024   -453.47047   -887.14883   -755.88497    282.62239    16.552371    16.552371    82.761854 
   36000    1035.3936   -3972.3039   -4143.4791     1.763851     1026.738   -1036.1874    14.740944    16.552873    16.552873    82.764365 
   36100    1053.7465   -3972.3064   -4146.5157   -292.81918   -473.44029   -921.70447    516.68723    16.552917    16.552917    82.764583 
   36200    1028.7853   -3972.3201   -4142.4027    340.65895   -196.13069   -134.83688    1352.9444    16.552288    16.552288    82.761442 
   36300    1052.6518   -3972.3296   -4146.3579   -24.311482   -1416.0379     1265.409    77.694462    16.551458    16.551458    82.757292 
   36400    1062.0878   -3972.3087    -4147.897   -412.02623   -1730.7735    277.69723    216.99758    16.550929    16.550929    82.754644 
   36500    1031.7412   -3972.3239   -4142.8952    496.39796    841.91084    1043.7585   -396.47543    16.549608    16.549608    82.748039 
   36600     1037.967   -3972.3473   -4143.9479    372.42131   -248.78468     2054.406   -688.35736    16.548314    16.548314    82.741572 
   36700    1065.0099   -3972.3412   -4148.4126   -71.629254   -654.80784    275.20083    164.71924     16.54784     16.54784    82.739198 
   36800    1044.1993    -3972.337   -4144.9679    543.97374    979.91209    652.59015  -0.58101261     16.54789     16.54789     82.73945 
   36900    1025.8558   -3972.3519   -4141.9502    661.98722     318.5615    1233.3788    434.02135    16.548309    16.548309    82.741546 
   37000    1060.0472   -3972.3695   -4147.6204   -82.537485    255.39628   -997.36162    494.35288    16.549163    16.549163    82.745813 
   37100    1012.3664    -3972.421   -4139.7892    949.59178    1066.6322    643.44499    1138.6981    16.549805    16.549805    82.749023 
   37200    1047.6569   -3972.4653   -4145.6678   -272.75894   -937.41528   -600.38121    719.51966    16.550423    16.550423    82.752117 
   37300    1029.0464   -3972.5076   -4142.6334     379.9059       78.907    1128.6849   -67.874171    16.550602    16.550602    82.753012 
   37400     1052.453    -3972.524   -4146.5195   -112.90241    178.95142   -1417.6374    899.97873    16.551048    16.551048    82.755239 
   37500    1055.0095   -3972.5487   -4146.9668   -73.483502    1000.3204   -139.22754   -1081.5433    16.551052    16.551052    82.755262 
   37600    1008.1582   -3972.5792   -4139.2517    1244.8781    1242.3855    860.94737    1631.3015    16.550887    16.550887    82.754433 
   37700    1067.9918   -3972.5817   -4149.1461   -572.19534   -13.414001   -1814.6527    111.48065    16.551117    16.551117    82.755584 
   37800    1043.1189    -3972.584   -4145.0363    165.07176    -1406.931   -213.42942    2115.5757    16.550878    16.550878    82.754388 
   37900    1063.6761   -3972.5804   -4148.4313   -106.80494   -294.92797   -472.81114    447.32429    16.550489    16.550489    82.752443 
   38000    1069.9015   -3972.6069    -4149.487   -295.18774   -1999.4569    593.01553    520.87811    16.549831    16.549831    82.749154 
   38100    1054.5458    -3972.649   -4146.9905    30.878141    1297.4011   -1171.8396   -32.927147    16.549107    16.549107    82.745537 
   38200    1065.9296   -3972.6764   -4148.8998   -219.51262   -334.61905   -1038.8807    714.96192    16.548943    16.548943    82.744714 
   38300    1072.8598   -3972.7001   -4150.0693   -224.36128   -303.99096   -175.63941   -193.45345    16.549052    16.549052    82.745259 
   38400     1032.302   -3972.7548   -4143.4189    352.59437    932.27596    -486.3008    611.80796    16.548749    16.548749    82.743746 
   38500    1024.2136    -3972.807   -4142.1339    822.82469    337.34659    -410.1025      2541.23     16.54876     16.54876    82.743802 
   38600    1067.7682   -3972.8481   -4149.3755   -118.78686    100.77341   -727.67683    270.54283    16.549314    16.549314     82.74657 
   38700    1081.0996   -3972.8915   -4151.6229   -770.45916     -564.709   -826.43321   -920.23527    16.550148    16.550148     82.75074 
   38800    1032.1591   -3972.9498   -4143.5902    329.80423    1483.9765   -582.40579    87.841999    16.550399    16.550399    82.751996 
   38900     1075.726   -3972.9928   -4150.8358   -490.21357   -633.56401   -468.94969   -368.12701    16.550399    16.550399    82.751996 
   39000    1045.0721   -3973.0514   -4145.8266    21.167143   -55.067911   -1134.0206    1252.5899    16.549798    16.549798    82.748992 
   39100    1048.2987   -3973.0727   -4146.3813   -2.6377477    852.31125    -855.1866    -5.037894    16.549493    16.549493    82.747464 
   39200    1062.0795   -3973.0778   -4148.6648   -179.39753   -895.96494   -369.00607    726.77842    16.549231    16.549231    82.746156 
   39300    1031.4589   -3973.0996   -4143.6243    628.62171   -251.49933    655.33825    1482.0262    16.548744    16.548744    82.743722 
   39400    1050.3483   -3973.1361   -4146.7836    205.82362    1592.6786    240.81536   -1216.0231    16.548134    16.548134    82.740671 
   39500    1053.0723   -3973.1523   -4147.2501    94.887851    1693.4569   -354.74519   -1054.0481    16.548021    16.548021    82.740105 
   39600    1056.1771    -3973.153   -4147.7641   -227.25717   -668.36599     -183.049    169.64348    16.548441    16.548441    82.742207 
   39700    1049.3261   -3973.1347   -4146.6132   -79.840884   -619.08519    686.31247   -306.74994    16.549191    16.549191    82.745956 
   39800    1077.8464   -3973.1009   -4151.2944    -934.5596   -1033.9388   -827.10481   -942.63519    16.550159    16.550159    82.750793 
   39900    1070.0123    -3973.054   -4149.9524   -448.36709    -560.5229    446.48754   -1231.0659    16.550899    16.550899    82.754493 
   40000    1041.0809    -3973.029   -4145.1444   -90.690221    896.47757   -457.75614   -710.79209    16.551042    16.551042     82.75521 
   40100    1070.3799   -3972.9852   -4149.9444   -743.07905   -228.22749   -39.181823   -1961.8278    16.551066    16.551066    82.755328 
   40200    1063.4142   -3972.9384    -4148.746   -591.72007   -32.628587   -1105.6745   -636.85708    16.550619    16.550619    82.753097 
   40300    1036.0532   -3972.8902   -4144.1743    513.45756    308.41784    927.15043     304.8044    16.549803    16.549803    82.749015 
   40400     1034.153   -3972.8148   -4143.7848    560.87717    74.392505    1115.9701    492.26887      16.5497      16.5497    82.748499 
   40500    1031.2912   -3972.7714   -4143.2683    651.46645    207.89694    1218.5432     527.9592    16.549626    16.549626     82.74813 
   40600    1031.2058   -3972.7384   -4143.2212    433.33477    61.419266    652.67325    585.91179     16.54965     16.54965    82.748249 
   40700    1071.9518   -3972.6932   -4149.9123   -455.20505   -759.26622   -517.41214   -88.936788     16.54981     16.54981    82.749048 
   40800     1078.539   -3972.6755   -4150.9836   -893.83935    -917.4078   -790.96387    -973.1464     16.54969     16.54969    82.748451 
   40900    1033.7793   -3972.6459   -4143.5541      201.263    284.16944    351.23508   -31.615508    16.549665    16.549665    82.748323 
   41000    1045.3026   -3972.6334   -4145.4467     269.5207    983.57661   -495.27808    320.26357    16.549361    16.549361    82.746805 
   41100    1040.7824   -3972.6267   -4144.6928    316.26121   -215.69236   -838.52421    2003.0002    16.549114    16.549114    82.745571 
   41200    1026.0017   -3972.6127   -4142.2351    569.30266    1075.6379    1069.7861   -437.51605     16.54933     16.54933    82.746651 
   41300    1060.2011   -3972.6037   -4147.8801   -506.18262   -399.63434   -988.71372    -130.1998    16.549588    16.549588    82.747942 
   41400    1086.5519   -3972.5824   -4152.2152   -981.21106   -217.29558   -1409.1579   -1317.1797    16.549912    16.549912    82.749561 
   41500    1041.9902   -3972.5745   -4144.8402    77.652455   -94.282963    -765.4336    1092.6739     16.54997     16.54997    82.749849 
   41600    1071.1753   -3972.5509   -4149.6416   -501.07439    338.45652    234.25906   -2075.9388    16.550082    16.550082    82.750408 
   41700    1070.0548   -3972.5394   -4149.4448   -343.23748    446.73102   -734.41106   -742.03239    16.549826    16.549826    82.749132 
   41800    1026.4891    -3972.539    -4142.242    858.91323    1806.7215   -1150.8349     1920.853    16.549514    16.549514    82.747571 
   41900    1025.5712   -3972.5237    -4142.075    718.64479    784.19346    368.02951    1003.7114    16.549943    16.549943    82.749714 
   42000    1029.2631   -3972.5055   -4142.6671    548.81805    312.00244    903.84969    430.60202    16.550764    16.550764    82.753818 
   42100    1065.6601   -3972.4709   -4148.6498   -550.76243   -590.20672    -808.5863   -253.49427    16.551947    16.551947    82.759733 
   42200    1061.4259   -3972.4467   -4147.9256   -477.68898    227.53028   -578.90691   -1081.6903    16.552385    16.552385    82.761926 
   42300    1057.0525   -3972.4033   -4147.1592    -670.2116    436.91614   -1776.4222   -671.12876    16.552477    16.552477    82.762385 
   42400    1054.7741   -3972.3737   -4146.7529     -140.195    159.72067     15.59661   -595.90228    16.551547    16.551547    82.757734 
   42500    1032.0901   -3972.3696   -4142.9985    586.23472    169.05155    1906.2006   -316.54802    16.550241    16.550241    82.751207 
   42600    1045.8151   -3972.3804   -4145.2784    322.82302   -1432.7344     1417.118    984.08544    16.549097    16.549097    82.745486 
   42700    1043.4888   -3972.4039   -4144.9174    715.04645    281.05383    1563.7069    300.37859    16.548296    16.548296     82.74148 
   42800      1053.81   -3972.4389   -4146.6587     144.7755    48.626766   -523.81475     909.5145    16.548014    16.548014    82.740071 
   42900    1066.3045   -3972.4687   -4148.7541    13.905865    712.48198   -916.05217    245.28778    16.548409    16.548409    82.742043 
   43000    1057.3337   -3972.4947    -4147.297    5.7200346   -572.92156   -1145.4726    1735.5542    16.549684    16.549684    82.748419 
   43100    1059.6102   -3972.5391   -4147.7178   -337.22559   -799.87208    193.14758   -404.95227    16.551017    16.551017    82.755083 
   43200    1042.6945   -3972.5944   -4144.9766    83.848714    988.45953   -572.38235   -164.53104    16.552113    16.552113    82.760567 
   43300    1037.3675   -3972.6486   -4144.1501    215.01161   -228.47836    215.31008    658.20309    16.552829    16.552829    82.764144 
   43400    1049.7747   -3972.6879   -4146.2406   -236.13885    538.60324   -483.86173   -763.15807    16.553214    16.553214     82.76607 
   43500    1029.1156   -3972.7525   -4142.8898    167.39232    1226.6187    229.98372   -954.42547    16.552313    16.552313    82.761567 
   43600    1049.3538   -3972.7849    -4146.268    -91.23506   -442.29281   -317.74541    486.33304     16.55118     16.55118      82.7559 
   43700    1051.4109   -3972.8321   -4146.6553   -63.673941    -242.8382   -112.43765    164.25403    16.549542    16.549542    82.747712 
   43800    1059.6925   -3972.8677     -4148.06    87.829375    835.85056   -136.06657   -436.29587    16.547981    16.547981    82.739903 
   43900     1057.552   -3972.8828   -4147.7213    194.57316   -1013.4711    2004.8339    -407.6433    16.547412    16.547412    82.737062 
   44000    1050.7694   -3972.8888   -4146.6059    319.89017    369.08402    1648.9419   -1058.3555    16.547733    16.547733    82.738667 
   44100    1017.9253   -3972.9134   -4141.2006    1110.6072    738.41525    113.25342    2480.1528     16.54824     16.54824    82.741199 
   44200    1046.1444   -3972.9156   -4145.8681    148.73541   -893.83456    593.24595    746.79485     16.54959     16.54959     82.74795 
   44300    1041.6428   -3972.9107   -4145.1189   -1.2911295   -666.58807    42.413971    620.30071    16.551116    16.551116    82.755581 
   44400    1045.6863   -3972.8993    -4145.776   -367.11036   -1030.3099    462.11261   -533.13378    16.552322    16.552322    82.761609 
   44500    1032.9786   -3972.8896   -4143.6655    -56.93124    783.34751   -823.19684   -130.94439    16.552533    16.552533    82.762665 
   44600    1068.9157   -3972.8721   -4149.5892   -877.23024   -1142.9983   -1340.4296   -148.26291    16.552195    16.552195    82.760976 
   44700    1075.5869   -3972.8585   -4150.6785   -1005.8448   -2496.2644   -44.383736   -476.88637    16.550971    16.550971    82.754855 
   44800    1051.1438   -3972.8441   -4146.6231   -28.021449    224.19892   -519.91398    211.65071     16.54906     16.54906    82.745298 
   44900    1081.0736   -3972.8248   -4151.5519   -649.21457     -859.368   -188.34231   -899.93341    16.547294    16.547294    82.736469 
   45000    1025.4571   -3972.8217   -4142.3541    1384.6095     449.4293    2235.9898    1468.4095    16.545794    16.545794     82.72897 
   45100    1041.0131   -3972.8116   -4144.9157    514.24162    1103.6965    965.60567   -526.57734    16.545721    16.545721    82.728604 
   45200    1030.5932   -3972.8185      -4143.2    1028.8283    1124.6117    2017.6693   -55.796203    16.546326    16.546326     82.73163 
   45300    1054.2962   -3972.8253   -4147.1255    198.94333    325.90995   -783.15138    1054.0714    16.547994    16.547994    82.739972 
   45400    1082.9936   -3972.8216   -4151.8661   -850.88976   -587.51637   -425.32029   -1539.8326    16.550102    16.550102     82.75051 
   45500    1035.5195   -3972.8491    -4144.045    227.71292   -629.31599    1799.2275   -486.77277    16.551634    16.551634    82.758168 
   45600    1040.0627   -3972.8715   -4144.8186   -109.76465    82.902814     613.1174   -1025.3142    16.552857    16.552857    82.764287 
   45700    1021.8565   -3972.8908   -4141.8279    248.16753    1014.0335    1421.7037   -1691.2346    16.553259    16.553259    82.766295 
   45800    1064.0481   -3972.8649   -4148.7773   -863.41621    -614.8672    -1086.432   -888.94945    16.553384    16.553384    82.766918 
   45900     1058.238   -3972.8737   -4147.8256   -399.35253   -2036.7512    389.62531    449.06832    16.552032    16.552032    82.760161 
   46000    1037.4017   -3972.8819    -4144.389    291.60219     1525.676    502.66535   -1153.5348    16.550068    16.550068     82.75034 
   46100    1050.0432    -3972.872   -4146.4691    220.63041    1371.7214   -13.277204   -696.55295    16.548241    16.548241    82.741205 
   46200     1022.485   -3972.8191   -4141.8602     694.2532   -1181.7823     2143.024    1121.5179    16.547552    16.547552    82.737762 
   46300    1047.6747   -3972.7668   -4145.9723   -54.305396   -909.30524    659.50524    86.883815    16.547543    16.547543    82.737713 
   46400    1054.3857   -3972.7373   -4147.0523    301.56208    200.53718   -97.714279    801.86333    16.547523    16.547523    82.737613 
   46500    1071.3367   -3972.7373   -4149.8547    -250.9696   -1744.4276    980.71905    10.799711    16.547957    16.547957    82.739787 
   46600    1043.7173   -3972.7507   -4145.3019    595.54515    1559.1422    510.26602   -282.77272    16.548738    16.548738    82.743689 
   46700    1053.1442   -3972.7318   -4146.8415   -326.49702   -1053.4055   -178.15667    252.07113     16.55065     16.55065    82.753248 
   46800    1053.2078   -3972.7087   -4146.8289   -343.21888   -748.39876    1583.6435   -1864.9014    16.552238    16.552238    82.761188 
   46900    1018.7627   -3972.6979   -4141.1236    429.13834    701.21059    704.63357   -118.42913    16.553141    16.553141    82.765703 
   47000    1072.6954   -3972.6639   -4150.0059   -932.21364   -1116.0749   -102.93147   -1577.6346    16.553623    16.553623    82.768115 
   47100    1035.2287   -3972.6702   -4143.8181     168.6793     842.0499    819.17536   -1155.1874     16.55258     16.55258    82.762898 
   47200    1051.8592    -3972.675   -4146.5723   -524.89848   -567.47509   -962.81708   -44.403261    16.551103    16.551103    82.755516 
   47300     1012.091   -3972.6614   -4139.9841    853.34411    109.92176    1784.4963    665.61432    16.549594    16.549594    82.747969 
   47400    1044.7839   -3972.6232   -4145.3508    312.12219    1239.6119    701.04481   -1004.2902    16.548908    16.548908    82.744538 
   47500    1063.1037   -3972.5939   -4148.3501   -21.972047   -150.56612    1436.4147   -1351.7647    16.548714    16.548714    82.743572 
   47600    1077.5866   -3972.5758   -4150.7264   -554.07524    288.62449    446.29637   -2397.1466    16.549037    16.549037    82.745185 
   47700    1036.3769   -3972.5708   -4143.9085    707.52726     383.3838    719.46329    1019.7347    16.549633    16.549633    82.748166 
   47800    1051.4285   -3972.5596   -4146.3857   -432.13257    -1113.855   -245.88548    63.342753    16.550942    16.550942    82.754708 
   47900    1047.7621   -3972.5291   -4145.7491   -342.81332   -247.87586   -1052.4752    271.91107    16.552181    16.552181    82.760906 
   48000    1039.8814   -3972.4721   -4144.3892    -280.0082    941.51545   -405.14673   -1376.3933    16.553171    16.553171    82.765854 
   48100    1056.8863   -3972.4222   -4147.1506   -465.19012    -48.46382    -987.3915   -359.71503    16.553331    16.553331    82.766656 
   48200     1060.495   -3972.3944   -4147.7194   -473.07368    283.65282   -621.79886    -1081.075      16.5527      16.5527    82.763499 
   48300    1032.2323   -3972.3814   -4143.0339    341.81879    2802.5049   -319.59544   -1457.4531    16.551144    16.551144     82.75572 
   48400    1050.0684   -3972.3299   -4145.9311    49.278497   -496.05047    2483.1247   -1839.2387    16.550251    16.550251    82.751256 
   48500    1079.8967    -3972.281   -4150.8135    -672.7541   -717.12025   -594.27224   -706.86981    16.549861    16.549861    82.749306 
   48600    1063.7991   -3972.2503   -4148.1216    112.67318   -1092.3833    414.42963    1015.9732    16.549458    16.549458    82.747292 
   48700    1059.0634   -3972.2321   -4147.3204   -144.41445    291.04256   -650.35855   -73.927369    16.549396    16.549396     82.74698 
   48800    1041.9762   -3972.2314   -4144.4948    114.01283   -829.49684   -531.75915    1703.2945    16.549356    16.549356    82.746779 
   48900    1043.6263   -3972.2404   -4144.7766    277.56102    205.04708    462.44939    165.18658    16.549467    16.549467    82.747336 
   49000    1049.4596   -3972.2238   -4145.7244    265.23486    552.15656   -485.30028    728.84832    16.550212    16.550212    82.751062 
   49100    1035.2799   -3972.2101   -4143.3664    365.11475   -47.730158   -841.51323    1984.5876    16.551055    16.551055    82.755277 
   49200    1021.9369    -3972.197   -4141.1475    540.35494   -130.12016    203.73418    1547.4508    16.551689    16.551689    82.758447 
   49300    1036.5264   -3972.1946   -4143.5569    13.052749    113.80199   -927.05916    852.41542    16.551699    16.551699    82.758493 
   49400    1039.3833   -3972.1891   -4144.0238    176.30784    1694.0217    408.43332   -1573.5315    16.551208    16.551208    82.756039 
   49500    1058.4727     -3972.17   -4147.1607   -275.83997    1049.0696   -516.81953     -1359.77    16.550779    16.550779    82.753894 
   49600    1040.7334   -3972.1523   -4144.2102    95.733159    662.11029    453.61844   -828.52925    16.550187    16.550187    82.750933 
   49700    1066.8598   -3972.1106   -4148.4878   -369.73466    50.925356   -1187.7485    27.619124    16.549916    16.549916    82.749582 
   49800    1038.0505   -3972.0817    -4143.696    593.85268   -626.65672    1673.5666    734.64812    16.549818    16.549818     82.74909 
   49900    1057.3229   -3972.0417   -4146.8422   -139.74761    944.04015   -987.87717   -375.40581    16.550387    16.550387    82.751937 
   50000     1046.575    -3972.012   -4145.0357    65.236411    617.66571   -601.15036    179.19388    16.550893    16.550893    82.754466 
Loop time of 242.641 on 1 procs for 50000 steps with 1280 atoms

Pair  time (%) = 214.248 (88.2985)
Neigh time (%) = 19.5624 (8.0623)
Comm  time (%) = 3.30684 (1.36285)
Outpt time (%) = 0.112225 (0.0462516)
Other time (%) = 5.41108 (2.23008)

Nlocal:    1280 ave 1280 max 1280 min
Histogram: 1 0 0 0 0 0 0 0 0 0
Nghost:    3985 ave 3985 max 3985 min
Histogram: 1 0 0 0 0 0 0 0 0 0
Neighs:    46718 ave 46718 max 46718 min
Histogram: 1 0 0 0 0 0 0 0 0 0

Total # of neighbors = 46718
Ave neighs/atom = 36.4984
Neighbor list builds = 5000
Dangerous builds = 0
unfix		1

# Melt half the system
region  liquid block INF INF INF INF INF ${nzhalf}
region  liquid block INF INF INF INF INF 10
group	liquid_group region liquid
638 atoms in group liquid_group

# Heat up one side to Tmelt to make sure it is melted
fix 2 liquid_group npt temp ${Tmelt} ${Tmelt} 1 z 0 0 10 drag 1.0
fix 2 liquid_group npt temp 2000 ${Tmelt} 1 z 0 0 10 drag 1.0
fix 2 liquid_group npt temp 2000 2000 1 z 0 0 10 drag 1.0
run		${eqsteps}
run		50000
Memory usage per processor = 3.13778 Mbytes
Step Temp TotEng PotEng Press Pxx Pyy Pzz Lx Ly Lz 
   50000     1046.575    -3972.012   -4145.0357    65.236411    617.66571   -601.15036    179.19388    16.550893    16.550893    82.754466 
   50100    1048.6132   -3971.6167   -4144.9773    250.34414   -35.078562   -504.84837    1290.9594    16.550893    16.550893    82.754549 
   50200    1040.1823   -3970.5255   -4142.4923    555.46009    600.91363   -353.17198    1418.6386    16.550893    16.550893    82.755055 
   50300    1066.7343   -3969.0641   -4145.4205    82.092088    421.58307   -614.71523    439.40843    16.550893    16.550893    82.756114 
   50400    1072.9561   -3967.5319    -4144.917    222.53885    306.49657   -717.07634    1078.1963    16.550893    16.550893    82.757681 
   50500    1031.8729   -3966.1102   -4136.7032    1656.6804    1831.9535     1330.793    1807.2948    16.550893    16.550893    82.759744 
   50600    1044.1699   -3964.7619   -4137.3879    1274.3937    578.74013     1769.127     1475.314    16.550893    16.550893    82.762723 
   50700    1069.1925   -3963.3575   -4140.1204    867.03296     976.6488    342.00585    1282.4442    16.550893    16.550893    82.766646 
   50800    1095.6825   -3961.9002   -4143.0425    691.72435    554.66899    132.80378    1387.7003    16.550893    16.550893     82.77145 
   50900    1068.2696   -3960.3716   -4136.9819    1675.4645    810.24928    1379.2683    2836.8761    16.550893    16.550893    82.777178 
   51000    1049.9717   -3958.7917    -4132.377    2548.2323    3737.6378    597.39254    3309.6667    16.550893    16.550893    82.783819 
   51100    1099.8831   -3957.2187   -4139.0555    1199.8049     1952.864     273.3082    1373.2425    16.550893    16.550893    82.791459 
   51200    1075.5291   -3955.6147   -4133.4252     2178.665    1305.4921    1484.4678    3746.0352    16.550893    16.550893     82.79997 
   51300    1089.1476   -3954.0329   -4134.0948    1978.6683    2167.0505    307.92971    3461.0247    16.550893    16.550893    82.809966 
   51400    1084.9184   -3952.4222   -4131.7849    2696.4441     3580.118    856.82997    3652.3844    16.550893    16.550893    82.821437 
   51500    1117.3154   -3950.7929   -4135.5117    1800.0819    1761.1905    966.84739    2672.2079    16.550893    16.550893    82.834269 
   51600    1090.6564   -3949.1613   -4129.4727    2759.1389    2269.7222    2473.8493    3533.8452    16.550893    16.550893    82.848458 
   51700    1129.8529   -3947.5029   -4134.2944    1773.8326    1243.9723      949.628    3127.8975    16.550893    16.550893    82.864094 
   51800    1125.1331   -3945.8611   -4131.8723    2418.2853    2768.1212    1888.1018     2598.633    16.550893    16.550893     82.88095 
   51900    1138.2146   -3944.1665   -4132.3403    1938.0683    1954.1739    1625.1817    2234.8492    16.550893    16.550893    82.898947 
   52000     1137.022   -3942.4875   -4130.4642    2112.7948    2439.3681    2092.7103    1806.3059    16.550893    16.550893    82.918053 
   52100    1139.1854    -3940.814   -4129.1483    2407.7925    2484.3705    2284.9185    2454.0884    16.550893    16.550893    82.938292 
   52200    1138.4429   -3939.1327   -4127.3443    2716.1665     1626.973    3399.2142    3122.3123    16.550893    16.550893    82.959411 
   52300    1142.6202   -3937.4659   -4126.3681    2860.9789    2000.2162    3572.6154    3010.1052    16.550893    16.550893    82.981786 
   52400    1133.1724   -3935.7514   -4123.0917    2915.7432    2523.4775    2186.0486    4037.7034    16.550893    16.550893    83.005654 
   52500    1108.5781   -3934.0597   -4117.3339    3875.1249    4447.6823    3596.1527    3581.5398    16.550893    16.550893    83.031118 
   52600    1149.3591   -3932.3702   -4122.3865    2886.3923     2713.733     2698.648     3246.796    16.550893    16.550893      83.0579 
   52700    1138.9019   -3930.6535    -4118.941    3250.1319    3790.3782    2203.4033    3756.6143    16.550893    16.550893    83.086018 
   52800    1182.5856   -3928.9324   -4124.4419    2128.5846    1972.1871    1986.8633    2426.7035    16.550893    16.550893     83.11523 
   52900    1145.7643   -3927.1933   -4116.6153     3250.981     3877.601    3323.6797    2551.6624    16.550893    16.550893    83.145252 
   53000    1123.4005   -3925.4939   -4111.2187    3990.7016    4833.6892    2684.8317     4453.584    16.550893    16.550893    83.175998 
   53100    1179.9754   -3923.7857   -4118.8636    2986.6935    2995.1896    3479.4092    2485.4817    16.550893    16.550893    83.208165 
   53200    1162.0777   -3922.0396   -4114.1586    3306.1134    3679.3131    1421.5601    4817.4671    16.550893    16.550893    83.241508 
   53300    1176.1649   -3920.3097   -4114.7577    2899.1152     3905.872    221.87317    4569.6004    16.550893    16.550893    83.276431 
   53400    1174.3692   -3918.5657   -4112.7168    3089.2156     3894.485    1742.6075    3630.5542    16.550893    16.550893    83.312785 
   53500    1181.5005   -3916.8226   -4112.1527    3100.1967    3373.3989    603.67153    5323.5196    16.550893    16.550893    83.350468 
   53600     1191.577    -3915.053   -4112.0489    2901.1791    2863.8581    1813.5737    4026.1054    16.550893    16.550893    83.389935 
   53700    1163.9156   -3913.2787   -4105.7015    3202.7423    1995.3744    1856.8061    5756.0465    16.550893    16.550893    83.430579 
   53800    1172.4036   -3911.5449    -4105.371    3155.0684    1641.6067    2827.8937    4995.7046    16.550893    16.550893    83.472674 
   53900    1222.6414   -3909.7541   -4111.8858    1516.8487    2311.1135    1687.5045    551.92806    16.550893    16.550893    83.515982 
   54000    1170.3683   -3907.9805   -4101.4702     3550.443    2863.4392     4838.271    2949.6189    16.550893    16.550893    83.559595 
   54100    1217.7785   -3906.1799   -4107.5076    1963.0408    2205.1368    1602.6021    2081.3836    16.550893    16.550893    83.603609 
   54200    1181.5584   -3904.4182   -4099.7579    3324.1571    1959.1365    4861.7676    3151.5672    16.550893    16.550893    83.647757 
   54300    1220.2224   -3902.6177   -4104.3494    1881.5695    863.98953    2971.5796    1809.1394    16.550893    16.550893    83.692187 
   54400    1232.3194   -3900.7928   -4104.5244     1536.036    915.02317    1807.1261    1885.9586    16.550893    16.550893    83.736743 
   54500    1258.2382   -3898.9523    -4106.969    1309.1071    1291.8705    1524.8638    1110.5869    16.550893    16.550893    83.781338 
   54600    1215.2185   -3897.1619   -4098.0663    2460.7734    2932.4567    2635.6291    1814.2344    16.550893    16.550893    83.825912 
   54700    1246.7163   -3895.3734   -4101.4852    1732.8546    4148.7912    308.76856    741.00405    16.550893    16.550893    83.870606 
[...]
  336300    1073.0445    -3940.341   -4117.7407   -255.51702   -388.59996     881.0466   -1258.9977     16.48468     16.48468    84.177233 
  336400    1038.2652   -3940.3403   -4111.9901    720.60546    1869.6437    203.12628    89.046345    16.485493    16.485493    84.153915 
  336500    1068.7545   -3940.3423   -4117.0328    237.59751    485.81857    -466.0054    692.97938    16.486373    16.486373    84.128437 
  336600    1079.3872    -3940.342   -4118.7903   -41.153609      924.581   -376.30903    -671.7328    16.487244    16.487244    84.143073 
  336700    1062.8603   -3940.3444   -4116.0604    476.00624    1351.3032    1561.0013   -1484.2858    16.488107    16.488107     84.14981 
  336800    1051.0805   -3940.3504   -4114.1189    692.02766    923.14742    360.53212    792.40343    16.489072    16.489072    84.098672 
  336900    1038.5425   -3940.3502   -4112.0459     1216.685    2519.3451     1738.186     -607.476    16.490126    16.490126    84.079474 
  337000    1072.3423   -3940.3536   -4117.6373   -346.85154    19.806067   -635.79672   -424.56396    16.491344    16.491344    84.088502 
  337100    1061.2529   -3940.3539   -4115.8042    79.856669   -1149.4725    364.80299    1024.2395    16.492477    16.492477    84.101989 
  337200    1039.0311   -3940.3519   -4112.1284    673.98606     1651.413   -827.54351    1198.0887     16.49351     16.49351    84.129565 
  337300    1043.3931   -3940.3555   -4112.8532   -106.15709    463.11549    527.28397   -1308.8707    16.494481    16.494481    84.151929 
  337400    1060.4783   -3940.3582   -4115.6804   -485.03137   -1608.6111   -802.92788    956.44489    16.495312    16.495312    84.167449 
  337500    1052.7387   -3940.3639   -4114.4066    -1020.926    639.67639   -1319.1087   -2383.3457    16.495812    16.495812     84.28273 
  337600    1036.5029   -3940.3532   -4111.7117    -408.5292   -522.03783    228.11807   -931.66784    16.496065    16.496065    84.308338 
  337700    1057.2892   -3940.3727   -4115.1677   -735.33982   -680.95244   -1831.6158    306.54879    16.496182    16.496182    84.217149 
  337800     1080.997   -3940.3977   -4119.1122   -106.19892    525.40244    1123.0344   -1967.0336    16.496214    16.496214     84.05533 
  337900    1071.1475   -3940.3873   -4117.4734    1675.9284    1381.9775    2268.4898    1377.3179    16.496428    16.496428    83.851105 
  338000    1077.9441   -3940.3817   -4118.5914    1781.9405     2338.906    2165.4986      841.417       16.497       16.497    83.799439 
  338100    1077.4316   -3940.4088   -4118.5338    814.00119   -961.46899    1184.5417    2218.9308    16.497928    16.497928    83.902256 
  338200    1051.5463   -3940.4561   -4114.3017   -247.39425    -150.3845   -963.21571    371.41747    16.498857    16.498857    84.142421 
  338300    1028.1812   -3940.4356   -4110.4184   -1664.8387   -1474.7172   -788.92061   -2730.8782    16.499557    16.499557    84.392528 
  338400    1052.4172   -3940.4323   -4114.4219   -2176.1171   -2754.8865   -700.51748   -3072.9472    16.499884    16.499884    84.396589 
  338500    1051.0046   -3940.5082   -4114.2642   -272.12954   -888.30364   -297.45057    369.36561    16.499792    16.499792    84.153381 
  338600    1077.4656   -3940.4603   -4118.5909    607.85183    -1240.687    1485.5538    1578.6887     16.49958     16.49958    83.945675 
  338700    1033.5912   -3940.4471   -4111.3242    1149.7074    1918.7618    1358.5372    171.82307    16.499455    16.499455    83.940498 
  338800    1058.6108   -3940.4579   -4115.4713    366.93569   -290.67811     1913.853   -522.36777    16.499563    16.499563    84.022875 
  338900    1061.8919   -3940.4584   -4116.0143   -372.15221     661.5587    1102.8112   -2880.8265    16.499827    16.499827     84.06302 
  339000    1064.8239   -3940.4685   -4116.5092    742.23285    441.00701    1226.2685    559.42307    16.500198    16.500198    83.947939 
  339100    1066.5914   -3940.4594   -4116.7923    723.82517   -513.15736    1331.3678    1353.2651    16.500664    16.500664    83.916085 
  339200    1058.3433   -3940.4653   -4115.4346   -31.778383     1229.394     -717.542   -607.18712    16.501178    16.501178    84.001809 
  339300    1040.0635   -3940.4592   -4112.4064    697.01345    1585.6423    204.49893    300.89909    16.501688    16.501688    84.038375 
  339400     1044.466   -3940.4663   -4113.1413    333.62931    387.14985    1035.4463   -421.70823    16.502251    16.502251    84.037205 
  339500    1082.8671   -3940.4662   -4119.4898    29.102329   -1666.6364    946.90684     807.0365    16.502915    16.502915    83.981816 
  339600    1064.5329   -3940.4806   -4116.4732   -211.19177    185.47712   -1661.1099    842.05746     16.50355     16.50355    84.031957 
  339700    1025.3693   -3940.4715   -4109.9893   -33.501439   -833.68757   -754.28674      1487.47    16.504063    16.504063    84.127744 
  339800    1053.2982   -3940.4669    -4114.602   -1282.4287    -860.7585   -961.70396   -2024.8237    16.504357    16.504357    84.198881 
  339900    1050.7692   -3940.4879    -4114.205   -818.34433    331.99186   -405.48619   -2381.5387    16.504426    16.504426    84.126326 
  340000    1049.2661   -3940.4943   -4113.9629    460.74057    332.29721    535.80137    514.12312    16.504364    16.504364    83.948038 
  340100    1047.7153    -3940.486   -4113.6982    1042.0302   -839.20048    1552.6703    2412.6209    16.504287    16.504287    83.904192 
  340200    1055.2418   -3940.4998   -4114.9563   -137.77283   -286.14296   -439.19522     312.0197    16.504271    16.504271     84.03715 
  340300    1033.5076   -3940.4893   -4111.3527    -341.1226   -206.16136    111.21562   -928.42207     16.50422     16.50422    84.142061 
  340400    1098.6735   -3940.4968   -4122.1336   -2140.5006   -2341.2117   -2174.5184   -1905.7716    16.504094    16.504094    84.139874 
  340500    1051.2477    -3940.496   -4114.2922   -75.426683   -1666.0876    1406.0667    33.740809    16.503754    16.503754    84.035832 
  340600    1045.0503   -3940.4899   -4113.2615    144.49169    -1405.977    1754.3782    85.073853    16.503374    16.503374    84.010933 
  340700    1072.5199   -3940.5053   -4117.8183    -750.9464   -1412.4144   -595.68425   -244.74061    16.502993    16.502993    84.061672 
  340800    1033.4479   -3940.4955   -4111.3489   -296.09122   -1231.0997    260.11431    82.711746    16.502551    16.502551     84.15452 
  340900    1047.7964   -3940.5007   -4113.7263   -782.31254   -819.20851   -1639.0184    111.28931    16.502025    16.502025    84.218556 
  341000    1047.9832   -3940.5019   -4113.7584   -1743.0911   -1974.1616    -3605.514    350.40249     16.50136     16.50136    84.273617 
  341100    1060.2834   -3940.5204   -4115.8104    -2438.149   -3481.7924    -3442.144   -390.51051    16.500275    16.500275    84.371536 
  341200    1049.0694   -3940.5211   -4113.9571    -2323.684   -3204.6115   -2752.3171   -1014.1233    16.498708    16.498708    84.398227 
  341300     1017.718   -3940.5279   -4108.7808   -1143.0862   -2854.8317    -1781.152    1206.7251    16.496773    16.496773    84.318111 
  341400    1055.1484   -3940.5534   -4114.9945   -772.64115   -1663.6065   -44.740889   -609.57606    16.494667    16.494667    84.251533 
  341500    1044.6733   -3940.5493   -4113.2586   -48.855975    1333.1553   -1189.7426   -289.98062    16.492705    16.492705    84.138461 
  341600    1041.0057   -3940.5454   -4112.6484    1167.4009    755.56703    952.37282    1794.2628    16.490988    16.490988    84.048254 
  341700    1041.9196   -3940.5535   -4112.8075    1027.7752    1379.1461   -233.94524    1938.1246    16.489624    16.489624    84.098254 
  341800    1044.0336   -3940.5608   -4113.1643   -232.09503   -579.36278    577.91151    -694.8338    16.488494    16.488494    84.251795 
  341900    1027.2365   -3940.5495   -4110.3761   -264.90889   -45.639105   -1300.8341    551.74657     16.48749     16.48749    84.313065 
  342000    1010.7531    -3940.554   -4107.6555    99.447491   -372.33364   -226.07952    896.75563    16.486427    16.486427    84.352488 
  342100    1067.2152   -3940.5592   -4116.9952   -1642.4342   -842.41104   -2919.1183   -1165.7733    16.485302    16.485302    84.383703 
  342200    1046.7267    -3940.573   -4113.6218     -476.996    2007.8547   -2493.1195   -945.72318     16.48405     16.48405    84.312357 
  342300    1076.8761   -3940.5878   -4118.6209   -200.90678     537.2042   -454.40838   -685.51615    16.482845    16.482845    84.176305 
  342400    1067.7469   -3940.5713   -4117.0952    1319.8978   -406.98788    1333.8696    3032.8118    16.481896    16.481896    84.050308 
  342500    1060.0156   -3940.5947   -4115.8404    1299.7046    931.01992     729.9943    2238.0994    16.481354    16.481354     84.12327 
  342600    1032.0074   -3940.5876   -4111.2029    313.99986    1792.0644    351.67474   -1201.7396    16.481064    16.481064    84.302589 
  342700    1027.7366   -3940.5777   -4110.4869   -60.619863   -805.82864     615.2678    8.7012536    16.480927    16.480927    84.379654 
  342800    1045.5421   -3940.5815   -4113.4344   -611.27513   -1033.1747    50.563134   -851.21383    16.480736    16.480736    84.390476 
  342900    1051.0888   -3940.5822   -4114.3521   -639.32874    7.3007632   -215.26214   -1710.0249     16.48048     16.48048    84.365757 
  343000    1085.7451   -3940.5877   -4120.0871   -781.56157   -2688.0546   -40.141061    383.51095    16.480265    16.480265      84.2903 
  343100    1053.6964    -3940.581    -4114.782    242.75342    1965.6404   -1573.4197    336.03958    16.480008    16.480008    84.272396 
  343200     1044.204   -3940.5824   -4113.2141    160.88336   -233.80447   -370.52334    1086.9779    16.479857    16.479857    84.259809 
  343300    1053.5078   -3940.6147   -4114.7845   -1182.9906   -572.24908   -2087.4841   -889.23849    16.479676    16.479676    84.360411 
  343400    1048.7742   -3940.6151   -4114.0023   -1281.5065   -1533.5659   -3850.4993    1539.5458    16.479286    16.479286    84.504462 
  343500    1029.6435   -3940.6047   -4110.8292   -1831.3635   -1828.4209   -2057.8074   -1607.8623    16.478557    16.478557     84.66129 
  343600    1062.9718   -3940.6339   -4116.3683   -2463.6412   -1989.6523   -2085.6546   -3315.6168    16.477522    16.477522    84.622236 
  343700    1052.2433   -3940.6739   -4114.6347   -681.27808   -1482.8704   -229.34327    -331.6206    16.476319    16.476319    84.387111 
  343800    1056.7764   -3940.6598     -4115.37    1559.6735    997.08715    2712.6677     969.2656    16.475289    16.475289    84.164804 
  343900    1046.4467   -3940.6446   -4113.6471    2480.4483    3847.9371    1534.3134    2059.0942    16.474776    16.474776    84.023021 
  344000    1059.6196    -3940.665   -4115.8452    1788.9239    2040.2185    938.55456    2387.9986    16.474878    16.474878    84.070063 
  344100    1038.0197   -3940.6988   -4112.3081     177.6943    859.54046    -58.11782   -268.33973     16.47537     16.47537    84.302414 
  344200    1028.7206     -3940.69   -4110.7619   -614.57742   -1994.7753   -810.55038     961.5934    16.475877    16.475877     84.48503 
  344300    1033.4738    -3940.674   -4111.5318   -1768.6196   -2485.3711   -1505.3531   -1315.1345    16.476053    16.476053    84.635348 
  344400    1038.4284   -3940.6792    -4112.356   -2049.1014   -2810.3187   -2752.1354   -584.84993     16.47577     16.47577    84.627825 
  344500    1027.7139   -3940.6951   -4110.6006   -746.84873   -51.912675   -584.07796   -1604.5556    16.475164    16.475164    84.526299 
  344600    1077.8257   -3940.6933   -4118.8834   -1187.0826   -2096.3693   -1664.4726    199.59424    16.474459    16.474459    84.386026 
  344700    1033.2412   -3940.7001   -4111.5193    874.14983     3085.517    456.11338   -919.18091    16.473734    16.473734    84.293878 
  344800     1033.651   -3940.6878   -4111.5748    1419.3814    1364.6152    4095.9903   -1202.4612    16.473382    16.473382    84.225153 
  344900     1043.076   -3940.6919   -4113.1371    1585.5008    3039.0517    1402.7794    314.67111     16.47347     16.47347    84.148238 
  345000    1077.3678   -3940.6945    -4118.809    796.47094    466.05255    2445.9135   -522.55321    16.473987    16.473987    84.143984 
  345100    1023.1108   -3940.7001   -4109.8446    1443.8902   -153.49102    2868.0947     1617.067    16.474771    16.474771    84.197698 
  345200    1033.2349    -3940.723   -4111.5413    445.01653   -881.63431     1130.559    1086.1248    16.475632    16.475632    84.328716 
  345300    1036.8442   -3940.7035   -4112.1185   -694.50572   -1326.8793    625.39165   -1382.0295    16.476435    16.476435    84.438416 
  345400    1001.9574   -3940.7027     -4106.35    342.98406   -649.84963    925.50125    753.30056    16.477137    16.477137    84.407223 
  345500    1030.7302   -3940.7034   -4111.1076    38.365736   -2284.2028    1543.4658    855.83418    16.477678    16.477678     84.36911 
  345600    1009.8241   -3940.7058   -4107.6537     1271.994    2108.9789    1524.3172    182.68597    16.478139    16.478139    84.333775 
  345700    1038.2976   -3940.7085   -4112.3637    312.00074    1202.4184    145.59139   -412.00754    16.478707    16.478707    84.263646 
  345800    1030.4853   -3940.7123    -4111.076     1618.086     2073.138    386.50022    2394.6199    16.479372    16.479372    84.163851 
  345900    1007.8177   -3940.7651   -4107.3812    1146.1989    660.49104    703.75676     2074.349    16.480124    16.480124    84.243814 
  346000    998.44064   -3940.7692   -4105.8351    11.772304    429.45528    -1460.002    1065.8636    16.480894    16.480894    84.485592 
  346100    1021.9987   -3940.7444    -4109.705   -2413.7969   -1630.8627   -2374.9125   -3235.6154    16.481427    16.481427     84.68825 
  346200    1000.4962   -3940.7671   -4106.1729   -1754.6923   -946.08874    -2157.146   -2160.8421    16.481469    16.481469    84.624628 
  346300    1001.8566   -3940.8579   -4106.4886    257.33656    1223.8283    563.14422   -1014.9628    16.481196    16.481196    84.347232 
  346400    1022.1095     -3940.81    -4109.789    2283.6437    3163.5674    1375.9417     2311.422    16.481109    16.481109    84.064579 
  346500    1041.3297   -3940.7899   -4112.9464    1979.4769    2397.9028    864.84158    2675.6864    16.481431    16.481431    84.012249 
  346600    1016.6815   -3940.9242   -4109.0058    1096.7742    1541.2601   -358.00531    2107.0677    16.482005    16.482005    84.221936 
  346700    1038.1842   -3940.9197   -4112.5562   -2438.3929   -3005.2536   -2938.6892    -1371.236     16.48255     16.48255    84.597036 
  346800    1005.3943     -3940.89   -4107.1055   -3257.9459   -3761.0426   -3671.3208   -2341.4745    16.482571    16.482571    84.831738 
  346900    990.70894   -3940.8882   -4104.6759   -2662.8151   -3375.4761   -2782.0954   -1830.8738    16.481963    16.481963    84.837431 
  347000     1041.733   -3941.0235   -4113.2466   -1852.9417   -2393.1567   -2243.0038   -922.66458    16.480912    16.480912    84.558276 
  347100    1020.1174    -3940.988   -4109.6376    1376.8731    853.33541    1536.2069    1741.0769    16.479775    16.479775    84.232889 
  347200    1032.6917   -3940.9425    -4111.671    2534.4153    2790.8354     3452.321    1360.0895    16.479015    16.479015    84.115027 
  347300    1036.8108   -3940.9454   -4112.3548    1480.0684    2296.1224    -229.2244     2373.307    16.478851    16.478851    84.141209 
  347400    1037.7888    -3941.022   -4112.5932      -7.6642    654.56313   -906.57458    229.01885    16.478985    16.478985    84.349894 
  347500    1010.9769   -3940.9774   -4108.1159   -781.11816   -585.43541    257.96432   -2015.8834    16.479092    16.479092    84.563104 
  347600    1034.9071   -3940.9803    -4112.075   -1678.2492   -3129.6305   -953.85774   -951.25946      16.4791      16.4791    84.549719 
  347700     1035.032   -3940.9924   -4112.1077   -522.83071   -176.49347   -100.48406   -1291.5146    16.478918    16.478918    84.438387 
  347800    1026.2877    -3940.997   -4110.6667    1025.7721    732.54217    1778.9965    565.77765    16.478803    16.478803    84.288607 
  347900    1039.8249   -3941.0093   -4112.9171    1321.9045    2205.9749    1924.0278   -164.28912    16.478998    16.478998    84.146046 
  348000    1034.6654   -3940.9967   -4112.0514    1985.4948    3349.5957   -166.83472    2773.7235    16.479589    16.479589    84.067724 
  348100    1010.5402   -3941.0609   -4108.1271    1060.2186    1591.6645    470.48908    1118.5023    16.480381    16.480381    84.237629 
  348200    1053.7003   -3941.0543   -4115.2559   -2154.4055   -2461.5108   -1125.2915   -2876.4144    16.481116    16.481116    84.507638 
  348300    1022.8153   -3941.0266   -4110.1223   -1464.5611    -2149.205   -1751.5647   -492.91369    16.481473    16.481473    84.581746 
  348400    1019.6213   -3941.0417   -4109.6093   -1563.1946   -1273.4435    -1722.319   -1693.8212    16.481409    16.481409    84.532834 
  348500    1037.9611    -3941.085   -4112.6846    141.63608   -1880.4956    1944.0517    361.35211    16.481099    16.481099    84.322769 
  348600    1047.4219    -3941.049   -4114.2127    323.98092    118.00424   -527.34117    1381.2797    16.480844    16.480844    84.211496 
  348700    1049.3777   -3941.0668   -4114.5538   -125.30053   -1390.2422   -1263.2262    2277.5668     16.48071     16.48071    84.283908 
  348800    1003.2483   -3941.0818   -4106.9426   -422.28728    451.68414   -196.25131   -1522.2947    16.480478    16.480478      84.4872 
  348900    1008.4083     -3941.07   -4107.7838   -1366.4565   -3090.6281   -314.11701   -694.62434    16.480094    16.480094    84.593353 
  349000    1001.0938   -3941.0701   -4106.5747   -1424.1225   -893.04137   -203.13894   -3176.1872    16.479428    16.479428    84.619919 
  349100    1033.8826     -3941.11   -4112.0353   -541.38407   -395.86723    182.84846   -1411.1334     16.47858     16.47858    84.464843 
  349200     1033.752   -3941.1139   -4112.0176    908.90594   -903.63928     3086.315    544.04212    16.477822    16.477822    84.249467 
  349300    1003.4251   -3941.0881   -4106.9781    2085.7226      1769.31     3469.079    1018.7786     16.47739     16.47739    84.149786 
  349400    1014.2606   -3941.1018   -4108.7832    1561.6771    1124.8383    1685.0143    1875.1787    16.477428    16.477428    84.192379 
  349500    991.56159   -3941.1268   -4105.0555    617.75684   -622.71702    1933.5006    542.48696    16.477712    16.477712    84.366952 
  349600    1037.1196   -3941.1026   -4112.5631   -1193.9518   -769.27686   -94.719654   -2717.8588    16.478029    16.478029    84.480869 
  349700    1011.9108   -3941.1256   -4108.4184   -74.438284   -979.43311    358.32854    397.78971    16.478358    16.478358    84.377465 
  349800    1022.7694   -3941.1181   -4110.2061    882.47017    1550.7402    366.42424    730.24611    16.478663    16.478663    84.254866 
  349900    1035.6384   -3941.1178   -4112.3334    1112.8665    1736.1651    2224.3903    -621.9561    16.479096    16.479096    84.191444 
  350000    1037.3146    -3941.119   -4112.6117    1097.0594    1492.9302    1474.0996    324.14832    16.479897    16.479897    84.155493 
Loop time of 938.73 on 1 procs for 200000 steps with 1280 atoms

Pair  time (%) = 833.314 (88.7703)
Neigh time (%) = 72.1369 (7.68452)
Comm  time (%) = 12.2875 (1.30895)
Outpt time (%) = 0.444176 (0.0473167)
Other time (%) = 20.5478 (2.18889)

Nlocal:    1280 ave 1280 max 1280 min
Histogram: 1 0 0 0 0 0 0 0 0 0
Nghost:    3633 ave 3633 max 3633 min
Histogram: 1 0 0 0 0 0 0 0 0 0
Neighs:    45884 ave 45884 max 45884 min
Histogram: 1 0 0 0 0 0 0 0 0 0

Total # of neighbors = 45884
Ave neighs/atom = 35.8469
Neighbor list builds = 20000
Dangerous builds = 0
unfix		4
