LAMMPS (13 Jan 2014)
dimension       3
boundary        p p p
units           metal

atom_style	atomic
neighbor	0.3 bin
neigh_modify	every 10 delay 0 check no

# Number of steps for the equilibration steps
variable        eqsteps equal 50000

# Number of steps to run our NPH simulation
variable        simsteps equal 200000

# Our trial melting temperature
variable	T equal 1300.0
variable	T2 equal 2*${T}
variable	T2 equal 2*1300

# Some high temperature to melt the crystal
variable	Tmelt equal 2000.0

#System size
variable	nx equal 10
variable	ny equal 10
variable	nz equal 20
variable	nzhalf equal ${nz}*0.5
variable	nzhalf equal 20*0.5
variable	a equal 4.050
variable	length equal ${nz}*${a}
variable	length equal 20*${a}
variable	length equal 20*4.05

lattice		fcc ${a}
lattice		fcc 4.05
Lattice spacing in x,y,z = 4.05 4.05 4.05

region         box block 0 ${nx} 0 ${ny} 0 ${nz}
region         box block 0 10 0 ${ny} 0 ${nz}
region         box block 0 10 0 10 0 ${nz}
region         box block 0 10 0 10 0 20
create_box     1 box
Created orthogonal box = (0 0 0) to (40.5 40.5 81)
  1 by 1 by 1 MPI processor grid
create_atoms   1 box
Created 8000 atoms

mass		1 26.9815

pair_style	eam/alloy
pair_coeff	* * Al_potential.alloy Al

velocity	all create ${T2} 1337
velocity	all create 2600 1337

# Create a dump file. This can be visualized with
# e.g. OVITO (http://www.ovito.org/)
dump		id all atom 1000 atomsdump

# 1 fs timestep
timestep	0.001
thermo_style	custom step temp etotal pe press pxx pyy pzz lx ly lz

# output every 100th timestep
thermo		100

# Equilibration the whole system to the trial melting temperature
fix		1 all npt temp ${T} ${T} 1 iso 0 0 3 drag 1.0
fix		1 all npt temp 1300 ${T} 1 iso 0 0 3 drag 1.0
fix		1 all npt temp 1300 1300 1 iso 0 0 3 drag 1.0
run		${eqsteps}
run		50000
Memory usage per processor = 5.95314 Mbytes
Step Temp TotEng PotEng Press Pxx Pyy Pzz Lx Ly Lz 
       0         2600   -24488.977   -27177.252    17548.399    17351.996    17331.679    17961.522         40.5         40.5           81 
     100    1212.7569   -24518.212   -25772.144    44845.771    45233.552    45094.832    44208.928     40.59175     40.59175      81.1835 
     200    1215.5517   -24569.183   -25826.005    31526.631    32427.498    31451.943    30700.452    40.815469    40.815469    81.630938 
     300    1183.6491   -24598.219   -25822.055     21739.33    22250.794    21313.852    21653.345    41.006082    41.006082    82.012164 
     400    1178.2698   -24611.089   -25829.363    14205.096    14720.596    13580.245    14314.448    41.154897    41.154897    82.309793 
     500    1159.6485   -24615.018   -25814.039    8322.1707    8567.7442    7779.3663    8619.4016    41.282311    41.282311    82.564623 
     600    1142.1243   -24613.466   -25794.368    4118.6112    4537.2843    4123.9051    3694.6443    41.383941    41.383941    82.767883 
     700    1142.2484   -24608.667   -25789.697    701.05323    592.94035    903.58678    606.63256    41.457943    41.457943    82.915885 
     800    1131.5766   -24602.735    -25772.73   -1090.9132   -808.46921   -1059.9353   -1404.3352    41.506464    41.506464    83.012928 
     900    1124.8302   -24596.764   -25759.785   -1951.0995   -2170.3687   -1724.5943   -1958.3355    41.534026    41.534026    83.068052 
    1000    1133.2007   -24590.942   -25762.617   -2462.3304   -2556.7852   -2238.6196   -2591.5863    41.544828    41.544828    83.089655 
    1100    1125.8316   -24585.274    -25749.33   -2059.4934    -1893.705   -2231.4829   -2053.2923    41.543203    41.543203    83.086407 
    1200    1158.0739   -24579.535   -25776.927    -2192.383   -2337.0768   -1984.5234   -2255.5487     41.53323     41.53323     83.06646 
    1300    1142.4463   -24573.816   -25755.051   -792.48219   -1296.3982   -102.27667   -978.77174    41.518091    41.518091    83.036182 
    1400     1148.555   -24567.948   -25755.499    -233.6656   -252.89431   -217.73115   -230.37134    41.502858    41.502858    83.005715 
    1500    1152.5937    -24562.06   -25753.787    328.28971    276.91716    635.83742    72.114543    41.489656    41.489656    82.979313 
    1600    1159.9703    -24556.21   -25755.563    998.63059    1044.3298     844.4463    1107.1157    41.480656    41.480656    82.961313 
    1700     1160.174   -24550.373   -25749.937    1136.5026    1087.4089     753.8109     1568.288    41.477902    41.477902    82.955805 
    1800    1166.0122   -24544.628   -25750.228     1097.141    1375.8061    1430.6173    484.99958    41.480249    41.480249    82.960498 
    1900    1161.8229    -24538.98   -25740.249    1028.7881    1572.6152     581.7676    931.98167    41.486996    41.486996    82.973992 
    2000    1166.0415   -24533.342   -25738.973    703.78018    997.64968    448.53782    665.15305    41.496811    41.496811    82.993621 
    2100    1169.2398   -24527.757   -25736.695    356.39346    6.4649266      921.102    141.61347    41.507944    41.507944    83.015888 
    2200    1152.9629   -24522.185   -25714.293      310.381    262.21899    50.928581    617.99542    41.519001    41.519001    83.038002 
    2300    1169.1474   -24516.603   -25725.445   -360.72957   -640.98831   -359.84725   -81.353148    41.528639    41.528639    83.057278 
    2400     1162.042   -24511.061   -25712.556   -247.19896   -499.08678    315.12367   -557.63377    41.535625    41.535625     83.07125 
    2500    1156.1981   -24505.502   -25700.955   -200.80203   -333.32506    214.04539   -483.12641    41.540386    41.540386    83.080772 
    2600    1159.3268   -24499.946   -25698.634   -208.30505   -674.69209   -68.584058    118.36099    41.542661    41.542661    83.085322 
    2700    1180.3758   -24494.423   -25714.874   -590.02737   -796.39983   -299.61018   -674.07211    41.542762    41.542762    83.085523 
    2800    1167.8313   -24489.087   -25696.568   -42.055622    118.29213   -12.288871   -232.17012    41.540553    41.540553    83.081107 
    2900    1165.9004   -24483.748   -25689.233    366.77187    473.12889   -112.79976    739.98648    41.537894    41.537894    83.075788 
    3000    1188.5613   -24478.355    -25707.27    83.946397    327.76496    650.12661   -726.05239    41.536194    41.536194    83.072389 
    3100    1182.1862   -24473.084   -25695.408    365.12098    567.70253    244.52156    283.13887    41.535319    41.535319    83.070638 
    3200    1197.5703   -24467.827   -25706.057    147.30881     571.2463    171.50032   -300.82018    41.536677    41.536677    83.073354 
    3300    1182.8923   -24462.674   -25685.728    447.95616    379.23845     856.1739    108.45613    41.539611    41.539611    83.079223 
    3400    1185.5061   -24457.581   -25683.337    432.01812    744.32186    140.28199     411.4505    41.543948    41.543948    83.087896 
    3500    1183.4865   -24452.544   -25676.212    451.31573    475.31927     1003.842   -125.21408    41.549905    41.549905     83.09981 
    3600    1186.6807    -24447.42   -25674.391    189.49902   -440.28353    273.90414    734.87646    41.557241    41.557241    83.114483 
    3700    1192.9907   -24442.376   -25675.871   -241.54932   -487.10082   -6.7378289   -230.80932    41.564276    41.564276    83.128552 
    3800    1199.4083   -24437.337   -25677.467   -532.36404    -140.1681   -782.45403   -674.46998    41.569971    41.569971    83.139941 
    3900    1188.9653   -24432.365   -25661.698   -222.99942   -160.02242   -127.31972   -381.65613     41.57395     41.57395    83.147901 
    4000    1194.6014   -24427.493   -25662.653   -273.05752   -548.36119    -379.1508    108.33943      41.5758      41.5758    83.151601 
    4100    1198.2842   -24422.617   -25661.585   -438.98521   -98.057553    131.93971   -1350.8378    41.576155    41.576155     83.15231 
    4200    1194.3709   -24417.812   -25652.734    137.36939   -31.696154   -88.044728    531.84904    41.575292    41.575292    83.150584 
    4300    1211.4159   -24412.999   -25665.545   -178.40271   -697.64666     443.5086   -281.07008    41.574301    41.574301    83.148603 
    4400    1206.6481   -24408.363   -25655.979    181.09371    227.03123     300.1027    16.147206     41.57288     41.57288    83.145761 
    4500    1200.1032   -24403.751     -25644.6    473.31777    313.78363     1138.527    -32.35736    41.572634    41.572634    83.145267 
    4600     1205.594   -24399.111   -25645.637    578.83583    47.658398    1051.8206    637.02847    41.574081    41.574081    83.148161 
    4700    1209.0756   -24394.488   -25644.614    231.99401    -122.4278    322.57452     495.8353    41.577655    41.577655    83.155311 
    4800    1211.9778   -24389.975   -25643.102     314.7667    277.72011    647.91925    18.660733    41.581759    41.581759    83.163518 
    4900    1225.2958    -24385.57   -25652.467    -137.3736    33.011777    177.39094   -622.52352    41.586488    41.586488    83.172975 
    5000    1210.7582   -24381.221   -25633.087    45.917977    -504.5661    428.28244    214.03759    41.590907    41.590907    83.181814 
    5100    1221.7602   -24376.881   -25640.122   -238.96366   -807.13466    59.815463    30.428201    41.595447    41.595447    83.190895 
    5200    1214.4933   -24372.491   -25628.219   -154.31683    29.380961   -239.87275   -252.45869    41.599406    41.599406    83.198811 
    5300    1231.7562   -24368.228   -25641.805   -508.25638   -326.63962   -470.70289   -727.42664    41.601695    41.601695    83.203391 
    5400    1226.2676   -24363.992   -25631.894   -260.41692   -479.42368    197.45848   -499.28554    41.602843    41.602843    83.205685 
    5500    1216.5826   -24359.738   -25617.626   -61.730372   -167.63668   -46.183674    28.629239    41.603706    41.603706    83.207412 
    5600    1217.7156   -24355.464   -25614.524    104.96698    549.93003    -278.6953    43.666228    41.604455    41.604455    83.208909 
    5700     1230.838    -24351.24   -25623.867    -214.2466   -322.09827    80.580789   -401.22233    41.605433    41.605433    83.210867 
    5800    1234.1908   -24347.098   -25623.192   -147.53273   -241.24868    60.098437   -261.44795    41.606228    41.606228    83.212457 
    5900    1216.7645   -24343.042   -25601.118    170.18919    556.59736   -322.73708    276.70729    41.607189    41.607189    83.214379 
    6000    1233.9115   -24339.007   -25614.812   -75.737711    31.323495   -143.34812   -115.18851    41.608483    41.608483    83.216967 
    6100    1233.2998   -24335.095   -25610.268   -15.841812    120.26183    160.71923   -328.50649    41.609572    41.609572    83.219144 
    6200    1232.1526   -24331.287   -25605.273    150.19597   -202.80801    456.31766    197.07825    41.610697    41.610697    83.221393 
    6300      1240.39   -24327.466    -25609.97   -26.382551   -343.84788   -174.19471    438.89494     41.61274     41.61274    83.225481 
    6400    1236.7322    -24323.64   -25602.361    23.269786   -535.92438   -148.17816     753.9119    41.615762    41.615762    83.231523 
    6500    1226.7293   -24319.899   -25588.278    341.07068    423.54775    -14.66138    614.32566    41.618921    41.618921    83.237842 
    6600    1235.9894   -24316.225   -25594.179   -51.713952    381.60442    -516.5824   -20.163879    41.622516    41.622516    83.245033 
    6700    1240.8976    -24312.53   -25595.558   -85.997856    435.97136    -905.9239    211.95898    41.626515    41.626515     83.25303 
    6800    1241.4958   -24308.919   -25592.566    -101.4666    42.156756     247.4928   -594.04934     41.62969     41.62969    83.259379 
    6900    1244.4354   -24305.316   -25592.002   -317.67584   -687.09285   -547.07728     281.1426    41.632553    41.632553    83.265107 
    7000    1228.1085   -24301.653   -25571.458   -76.675784   -601.57081    58.044958     313.4985    41.635224    41.635224    83.270448 
    7100    1244.0498   -24297.889   -25584.177   -259.99286   -1038.7511    121.43033    137.34216    41.637609    41.637609    83.275219 
    7200    1236.1696   -24294.232   -25572.371   -83.572363    235.66552    130.18191   -616.56452    41.639163    41.639163    83.278326 
    7300    1240.4701   -24290.722   -25573.309    -17.89061    40.989496   -586.40168    491.74035    41.639918    41.639918    83.279836 
    7400    1264.0802   -24287.289   -25594.287   -534.68147   -384.36477   -801.07035   -418.60929    41.640355    41.640355     83.28071 
    7500    1244.0586   -24283.989   -25570.286    144.51405    433.15916   -91.918213    92.301191    41.640063    41.640063    83.280127 
    7600    1240.4196   -24280.688   -25563.223    185.28199    250.97706    61.605135    243.26377    41.640176    41.640176    83.280353 
    7700    1250.1774   -24277.396    -25570.02   -24.985103   -618.84359   -144.33655    688.22483    41.640684    41.640684    83.281368 
    7800    1256.3071   -24274.126   -25573.088    -7.118843    522.07393   -323.11097   -220.31949    41.641962    41.641962    83.283923 
    7900    1238.5955   -24270.854   -25551.502    312.88468   -37.917062    558.79516    417.77595    41.644254    41.644254    83.288509 
    8000    1256.6589   -24267.525   -25566.849   -102.98508    -144.8896   -56.732055   -107.33359    41.647615    41.647615     83.29523 
    8100    1251.7025   -24264.198   -25558.398    17.090819   -255.98739    127.87988    179.37996    41.651454    41.651454    83.302908 
    8200    1258.8349   -24260.903   -25562.478   -212.59988   -361.70836   -522.90853    246.81726    41.655599    41.655599    83.311198 
    8300    1243.8441   -24257.733   -25543.808    66.745813    441.04301   -124.39063   -116.41494      41.6592      41.6592      83.3184 
    8400    1254.1072   -24254.548   -25551.235   -110.47784   -477.74036    283.67492   -137.36808    41.662579    41.662579    83.325159 
    8500    1244.6586   -24251.402    -25538.32    -53.19679   -95.815304   -681.53233    617.75726    41.665455    41.665455    83.330909 
    8600    1256.5689   -24248.251   -25547.482   -246.01684   -640.33288   -423.49461    325.77696    41.667528    41.667528    83.335056 
    8700    1251.4667   -24245.252   -25539.209   -34.934453   -89.775026     -519.971    504.94267    41.667751    41.667751    83.335502 
    8800    1264.3671   -24242.323   -25549.618   -380.26367    -269.6575   -1444.3027    573.16918    41.666866    41.666866    83.333731 
    8900    1258.5978   -24239.439   -25540.769    24.512873    416.98118   -482.27271    138.83015     41.66524     41.66524    83.330481 
    9000    1236.2763   -24236.564   -25514.814    581.16118    459.96144    44.657998    1238.8641    41.663855    41.663855    83.327711 
    9100    1253.3411    -24233.64   -25529.535    196.31887    267.91772    126.19201     194.8469    41.663355    41.663355     83.32671 
    9200    1256.0933   -24230.703   -25529.443     337.7366    39.681029    422.44739    551.08138    41.663678    41.663678    83.327356 
    9300    1265.4023   -24227.838   -25536.203     227.7692   -833.90089     220.8835     1296.325    41.665161    41.665161    83.330322 
    9400    1252.8202   -24225.038   -25520.393    394.96685    417.75264    22.225448    744.92247    41.667685    41.667685    83.335371 
    9500    1275.5522    -24222.24   -25541.099   -176.80039    -179.5536   -277.53667   -73.310885    41.671496    41.671496    83.342993 
    9600    1266.3025   -24219.604     -25528.9    2.0592198   -655.66294    466.26384    195.57676    41.674963    41.674963    83.349925 
    9700    1254.6797   -24217.147   -25514.426    294.29232    1244.3201   -206.51123   -154.93194    41.677746    41.677746    83.355491 
    9800    1255.8592   -24214.586   -25513.084    10.696115   -798.91048     705.1363    125.86252    41.681049    41.681049    83.362098 
    9900    1264.6199   -24212.031   -25519.588   -143.78237    244.41353   -277.47404   -398.28661    41.683743    41.683743    83.367485 
   10000     1277.541   -24209.512   -25530.428    -346.9223   -797.45095    -273.7763    30.460352    41.685384    41.685384    83.370768 
   10100    1272.7508   -24207.172   -25523.136   -311.31054    -340.4421    165.66165   -759.15116    41.685273    41.685273    83.370545 
   10200    1280.1259   -24204.875   -25528.463   -367.10559    -799.0235    47.357935    -349.6512    41.684122    41.684122    83.368244 
   10300    1283.6243   -24202.624    -25529.83   -334.77288   -869.88326   -14.732301   -119.70307    41.682537    41.682537    83.365073 
   10400    1277.5954   -24200.448    -25521.42   -77.563945      193.451   -76.280811   -349.86202    41.680819    41.680819    83.361639 
   10500     1262.823   -24198.331   -25504.029    514.89986   -92.901024    1252.1774    385.42321    41.679327    41.679327    83.358655 
   10600    1266.6962   -24196.167    -25505.87    464.89386    22.219834    901.03791    471.42383    41.679167    41.679167    83.358333 
   10700    1262.8855    -24194.06   -25499.823    566.33215    690.39436     523.9681      484.634    41.680023    41.680023    83.360047 
   10800    1274.4008   -24191.966   -25509.635    338.08544    784.19331   -111.19423    341.25725    41.682346    41.682346    83.364692 
   10900    1275.2886    -24189.88   -25508.467    333.83618     588.6506    446.99485   -34.136897    41.686031    41.686031    83.372062 
   11000    1268.2635   -24187.762   -25499.086    184.37909   -161.94904    -65.34375    780.43007    41.690763    41.690763    83.381527 
   11100    1265.3304   -24185.622   -25493.912    110.77097   -397.84307    255.84847     474.3075    41.695849    41.695849    83.391699 
   11200    1263.2136   -24183.337   -25489.439   -20.313863    164.01222    107.22505   -332.17886    41.700768    41.700768    83.401536 
   11300    1265.0139   -24180.906   -25488.869   -136.06121    153.72914   -362.12134   -199.79141    41.705127    41.705127    83.410253 
   11400    1271.2153   -24178.351   -25492.727   -397.51476    396.68161   -708.12991   -881.09599    41.708553    41.708553    83.417107 
   11500    1261.1972   -24175.739   -25479.757   -258.38302    -411.0486    152.31916   -516.41962     41.71084     41.71084    83.421681 
   11600    1259.9456   -24173.139   -25475.862    -167.2282   -304.51845    84.604273   -281.77044    41.711522    41.711522    83.423044 
   11700     1272.633   -24170.568    -25486.41   -302.66087   -429.73741   -682.65107    204.40586    41.710797    41.710797    83.421594 
   11800    1275.5937   -24168.116   -25487.019   -111.01009    64.759056   -179.55444   -218.23489    41.708773    41.708773    83.417546 
   11900    1273.4486   -24165.863   -25482.547   -103.19508    338.32107   -468.05303   -179.85328    41.705821    41.705821    83.411643 
   12000    1268.8614    -24163.67   -25475.612    383.01473    -12.41961    322.83038    838.63341    41.702896    41.702896    83.405792 
   12100    1265.7182   -24161.448    -25470.14    535.41042    216.52348    613.93472    775.77306    41.701828    41.701828    83.403655 
   12200    1276.8967   -24159.227   -25479.477    193.23847   -214.31514    59.559562      734.471    41.702876    41.702876    83.405752 
   12300    1266.5146   -24156.957   -25466.472     499.0052    106.70468    607.75595    782.55496    41.705782    41.705782    83.411565 
   12400    1254.1283   -24154.669   -25451.377    806.73923    92.158462    1503.6963    824.36293    41.710359    41.710359    83.420717 
   12500    1267.4161   -24152.364   -25462.811    1.7936388   -389.87648    -130.3488     525.6062    41.716424    41.716424    83.432849 
   12600    1279.1545   -24149.973   -25472.557   -517.75319   -977.00526   -420.68522    -155.5691    41.722604    41.722604    83.445209 
   12700    1279.1155   -24147.647   -25470.191   -376.13286   -648.11607   -592.48848    112.20597    41.727648    41.727648    83.455297 
   12800    1284.6828   -24145.364   -25473.664   -632.49405   -1598.6015   -66.874454   -232.00622    41.731148    41.731148    83.462296 
   12900    1268.1826   -24143.251   -25454.491   -61.528136   -766.25902   -14.380321    596.05493    41.731844    41.731844    83.463688 
   13000    1268.3233   -24141.141   -25452.526    -282.5492   -179.47301    -218.2672   -449.90738    41.731119    41.731119    83.462237 
   13100    1257.2834   -24138.905   -25438.875    278.30002   -192.91142    276.77218     751.0393    41.729763    41.729763    83.459526 
   13200    1283.3671   -24136.607   -25463.547   -255.24993   -791.66089    195.71453   -169.80344      41.7287      41.7287      83.4574 
   13300    1262.5155   -24134.334   -25439.714    448.87498     -38.6413    283.44947    1101.8168    41.727655    41.727655    83.455309 
   13400    1279.5696   -24132.032   -25455.046   -9.3544844    7.6668324   -58.251835    22.521549    41.727422    41.727422    83.454845 
   13500    1261.9072   -24129.732   -25434.484    619.66765    810.20227    452.33529    596.46538    41.727983    41.727983    83.455966 
   13600    1266.9424   -24127.419   -25437.376    262.80328    349.23275   -121.74391      560.921    41.729899    41.729899    83.459798 
   13700    1270.7208   -24125.113   -25438.977    51.650121   -1186.0622    404.30718    936.70538    41.733075    41.733075    83.466149 
   13800    1274.5017   -24122.802   -25440.575    101.89222    877.83946   -434.95741   -137.20541    41.737072    41.737072    83.474143 
   13900     1277.553   -24120.518   -25441.447   -60.714151   -143.89211    4.2143666   -42.464711    41.741513    41.741513    83.483026 
   14000     1270.672   -24118.202   -25432.016    25.376704   -839.13597    1083.6831     -168.417    41.746073    41.746073    83.492145 
   14100    1268.5962   -24115.784   -25427.451    -100.5321   -273.13405    375.55499   -404.01725    41.750651    41.750651    83.501303 
   14200    1264.0554   -24113.335   -25420.307   -307.40749   -333.89687   -619.65728    31.331689    41.754334    41.754334    83.508668 
   14300    1245.5553   -24110.798   -25398.642    215.11798    484.30436    -296.4817    457.53128    41.757031    41.757031    83.514061 
   14400    1266.1414   -24108.086   -25417.215   -258.29263    82.034872     179.9942    -1036.907    41.759393    41.759393    83.518785 
   14500    1261.1639   -24105.255   -25409.237   -105.36279   -99.835934   -157.97342   -58.278999    41.761178    41.761178    83.522356 
   14600    1270.4479   -24102.426   -25416.008   -475.62529   -701.39084   -103.17897   -622.30607    41.762524    41.762524    83.525048 
   14700    1255.9587   -24099.592   -25398.193    142.62053    836.40529     81.48165   -490.02536    41.763285    41.763285     83.52657 
   14800    1264.0315   -24096.672    -25403.62   -172.54535   -267.32597   -175.18249   -75.127584    41.764879    41.764879    83.529758 
   14900    1268.6321   -24093.913   -25405.618   -81.618138    732.10482   -193.14352   -783.81572    41.765452    41.765452    83.530904 
   15000    1259.5682   -24091.307    -25393.64    76.670957   -619.31832    163.62274    685.70845    41.765511    41.765511    83.531021 
   15100    1254.7883   -24088.618   -25386.009    463.01072   -12.397119    1387.4097    14.019569    41.766077    41.766077    83.532154 
   15200    1242.7385     -24085.9   -25370.831    811.47789    346.05222    145.49488    1942.8866    41.768011    41.768011    83.536021 
   15300    1259.1866   -24082.991    -25384.93    201.21297    183.51094    248.25901    171.86895    41.772534    41.772534    83.545067 
   15400    1251.5969   -24080.131   -25374.222    57.928627    501.96968    26.937563   -355.12136    41.777662    41.777662    83.555325 
   15500      1256.06   -24077.298   -25376.004   -46.757943    935.89147   -286.14054   -790.02476    41.782215    41.782215    83.564431 
   15600    1264.7369   -24074.502   -25382.179   -435.10744    6.7207895    177.57196   -1489.6151    41.785908    41.785908    83.571816 
   15700    1258.7375   -24071.653   -25373.127   -73.906743   -240.93615   -85.272068    104.48799    41.788548    41.788548    83.577097 
   15800    1257.1059   -24068.831   -25368.618   -161.69441   -127.35851    543.57295   -901.29766     41.79039     41.79039     83.58078 
   15900    1252.5362   -24065.909   -25360.971     56.11605    323.03468    -323.9993    169.31276    41.792041    41.792041    83.584082 
   16000    1248.9736   -24062.913   -25354.291    56.766713    263.86243   -240.29208    146.72979    41.793854    41.793854    83.587707 
   16100    1246.7087   -24059.952   -25348.989    372.77644    934.93519   -43.326579     226.7207    41.795563    41.795563    83.591126 
   16200     1254.018   -24057.001   -25353.596    35.740701   -56.207416    212.98949   -49.559974    41.797758    41.797758    83.595515 
   16300    1257.7102   -24054.087   -25354.499   -257.41348    14.879033   -447.59321   -339.52628    41.799553    41.799553    83.599106 
   16400     1248.127   -24051.146   -25341.649    102.00824    143.67331    139.28448    23.066918    41.801205    41.801205    83.602409 
   16500    1240.0278   -24048.114   -25330.243    482.07233    227.59667    244.39645    974.22386    41.803483    41.803483    83.606966 
   16600    1233.4935    -24044.98   -25320.353    412.08026    230.73722     971.9044    33.599158    41.806669    41.806669    83.613338 
   16700    1243.6512   -24041.765    -25327.64    227.19514   -36.764411    197.21409    521.13575    41.810318    41.810318    83.620636 
   16800     1228.489   -24038.516   -25308.715    621.08595    789.64004    179.09402     894.5238    41.814436    41.814436    83.628872 
   16900    1241.0825   -24035.092   -25318.311    125.24656    472.81204    -372.3934    275.32105    41.819685    41.819685    83.639371 
   17000    1232.0471    -24031.69   -25305.567    282.47004    199.25135    350.83292    297.32587    41.824669    41.824669    83.649338 
   17100     1222.913   -24028.199   -25292.632    236.91679     240.5203    500.25985   -30.029788    41.830001    41.830001    83.660002 
   17200    1213.1403   -24024.458   -25278.787    488.67569    99.834966    589.90381    776.28829    41.836166    41.836166    83.672331 
   17300    1218.3131     -24020.5   -25280.178   -141.82821    -802.6079    257.75811    119.36515    41.842942    41.842942    83.685883 
   17400    1218.9713   -24016.374   -25276.731   -276.14248   -909.66266    569.17402    -487.9388    41.849335    41.849335    83.698671 
   17500    1201.7825   -24012.157   -25254.743    238.62878   -104.02286   -64.289942    884.19914    41.855193    41.855193    83.710386 
   17600    1209.1391   -24007.754   -25257.946   -116.75341   -618.90046   -497.18908    765.82933    41.861428    41.861428    83.722856 
   17700    1199.6193   -24003.325   -25243.674    66.371138    724.07189   -444.57862   -80.379861    41.867242    41.867242    83.734483 
   17800     1211.899   -23998.836   -25251.881   -570.56769   -464.72303   -240.15316   -1006.8269    41.872584    41.872584    83.745168 
   17900    1211.1822   -23994.424   -25246.728   -419.81142    -611.4494    -730.3246    82.339743    41.875631    41.875631    83.751262 
   18000    1194.7824   -23990.107   -25225.454    131.56081    -10.77235    268.85213    136.60266    41.877194    41.877194    83.754388 
   18100    1198.7174   -23985.734   -25225.151    147.41616   -284.27336    477.19823     249.3236    41.878358    41.878358    83.756716 
   18200    1200.1658   -23981.225   -25222.139    106.52889   -167.28492    789.40439   -302.53282    41.879905    41.879905     83.75981 
   18300    1195.2057   -23976.647   -25212.433    359.88797     16.01015    1338.1871   -274.53338    41.882263    41.882263    83.764525 
   18400    1190.5894   -23971.963   -25202.975    477.65039   -171.43659    858.95446    745.43331    41.886232    41.886232    83.772464 
   18500    1185.9621   -23967.145   -25193.373    487.00762    418.39944     435.3464    607.27701    41.892059    41.892059    83.784118 
   18600    1186.4208   -23962.233   -25188.935    89.563046   -702.08566    935.28072    35.494084     41.89934     41.89934    83.798679 
   18700    1190.5174   -23957.321   -25188.258    -69.78201    -80.51876   -518.30457     389.4773    41.906624    41.906624    83.813249 
   18800     1189.148   -23952.367   -25181.889   -217.33974    -333.6367     275.4396   -593.82214    41.913737    41.913737    83.827473 
   18900    1185.5525   -23947.429   -25173.233    73.194565    98.545533    1201.6044   -1080.5662    41.919766    41.919766    83.839532 
   19000    1175.8337   -23942.491   -25158.246    360.91995    428.93069    883.04117   -229.21201    41.925436    41.925436    83.850871 
   19100    1176.4964   -23937.484   -25153.925    0.8588597    672.80096   -128.65899   -541.56539    41.931235    41.931235    83.862469 
   19200    1164.4161   -23932.345   -25136.295   -11.706422    358.67035   -115.34327   -278.44635    41.936741    41.936741    83.873481 
   19300    1161.5909   -23927.049   -25128.078    280.14656    418.99028    808.14118    -386.6918    41.941535    41.941535     83.88307 
   19400    1178.4634   -23921.669   -25140.143   -378.53295   -607.57116    896.03668   -1424.0644    41.946089    41.946089    83.892178 
   19500    1180.3923   -23916.319   -25136.788   -435.75153   -257.55155   -804.44781   -245.25523    41.949433    41.949433    83.898865 
   19600    1166.1004   -23911.027   -25116.719    75.365784    94.643283      1465.04   -1333.5859    41.951463    41.951463    83.902927 
   19700    1157.4355   -23905.647    -25102.38    513.22991    849.60253    993.86509   -303.77791    41.953859    41.953859    83.907718 
   19800    1164.2946   -23900.253   -25104.077    184.42516      761.118    66.821901   -274.66442    41.957348    41.957348    83.914697 
   19900     1175.919   -23894.837    -25110.68    184.88384    754.52504    126.44684   -326.32037    41.961501    41.961501    83.923003 
   20000     1180.585   -23889.454   -25110.122   -200.52775    1064.3473   -111.51451    -1554.416    41.966264    41.966264    83.932528 
   20100    1159.0989   -23884.077    -25082.53    354.85466    81.053098     711.3274    272.18348    41.971405    41.971405     83.94281 
   20200    1175.4284    -23878.57   -25093.907    66.961579   -249.93859    -34.56271    485.38603    41.978363    41.978363    83.956727 
   20300    1165.8466   -23873.014   -25078.444   -173.84641     123.7537   -432.00526   -213.28767    41.986208    41.986208    83.972416 
   20400    1160.4439   -23867.475   -25067.318   -182.75682    614.84811   -226.73996    -936.3786    41.993208    41.993208    83.986416 
   20500    1172.4745   -23861.969   -25074.252   -388.00866    305.67156   -336.15013   -1133.5474    41.998798    41.998798    83.997595 
   20600    1164.3312   -23856.407   -25060.269    -441.3827   -468.59305   -126.12892   -729.42612    42.003156    42.003156    84.006312 
   20700    1156.3162   -23850.907   -25046.483   -130.25166   -238.23969    53.136639   -205.65193    42.005882    42.005882    84.011764 
   20800    1168.4566   -23845.278   -25053.406    -15.60852        251.7   -547.43645    248.91089    42.008203    42.008203    84.016406 
   20900    1160.2746   -23839.789   -25039.457    471.76178    579.44802    706.95383    128.88349    42.009757    42.009757    84.019514 
   21000    1172.0016   -23834.359   -25046.152   -13.139179   -631.49057   -127.66472    719.73775    42.011464    42.011464    84.022927 
   21100    1179.4611   -23828.941   -25048.447    16.089822    143.69837   -522.46258    427.03367    42.012866    42.012866    84.025732 
   21200    1178.5799   -23823.664   -25042.259   -124.43008     147.9889   -318.30357   -202.97559    42.014338    42.014338    84.028676 
   21300    1178.0475   -23818.343   -25036.388   -15.156368   -214.74599   -249.40988    418.68677    42.016364    42.016364    84.032728 
   21400    1175.0675   -23813.008   -25027.971     191.6253   -131.36591    460.38939    245.85242    42.018463    42.018463    84.036926 
   21500    1185.5872    -23807.65    -25033.49    80.942096   -330.72983    415.31878    158.23733    42.021011    42.021011    84.042022 
   21600    1183.2222   -23802.345    -25025.74    155.11425    1039.6999    -343.4996   -230.85757    42.024212    42.024212    84.048423 
   21700    1187.2138   -23797.137   -25024.659    57.200053    1.7181914    212.38928    -42.50731    42.027743    42.027743    84.055485 
   21800    1178.3387   -23791.981   -25010.326    249.38053   -176.74634    471.15323    453.73471     42.03175     42.03175      84.0635 
   21900    1194.7477   -23786.899   -25022.211   -323.56768    24.135068     108.9528   -1103.7909    42.036247    42.036247    84.072493 
   22000    1195.6718   -23781.833     -25018.1  -0.81662946    31.315315   -194.34223    160.57702     42.04062     42.04062     84.08124 
   22100    1182.0457    -23776.83   -24999.008    161.05499    61.503266    361.89843    59.763266    42.045129    42.045129    84.090259 
   22200    1201.7069   -23771.802   -25014.309   -461.38601   -640.99223   -84.206946   -658.95887    42.049718    42.049718    84.099435 
   22300    1197.3941   -23766.811   -25004.859   -164.69581    313.32441   -139.07448   -668.33736    42.053116    42.053116    84.106232 
   22400    1189.7561   -23761.919   -24992.069   -12.762993   -1557.7131    614.34174    905.08241    42.055515    42.055515     84.11103 
   22500    1210.2004    -23756.98   -25008.269   -448.31609   -769.79437   -599.98828    24.834386    42.057972    42.057972    84.115945 
   22600    1205.5364     -23752.1   -24998.567    -213.5691    49.049466    357.44681   -1047.2036    42.059618    42.059618    84.119237 
   22700    1193.1876   -23747.298   -24980.996    271.96727   -350.26524    930.27054    235.89652    42.060666    42.060666    84.121332 
   22800    1196.0648   -23742.488   -24979.161    194.74395    1405.4868    170.26093    -991.5159    42.061963    42.061963    84.123927 
   22900     1202.077   -23737.713   -24980.603    4.4194968    328.86906   -344.82573    29.215159    42.063819    42.063819    84.127637 
   23000    1205.5467   -23732.973    -24979.45     41.01724   -431.28255    527.59446    26.739808    42.066152    42.066152    84.132305 
   23100    1206.8408    -23728.36   -24976.175   -30.704642     32.94945   -823.77204    698.70866     42.06851     42.06851    84.137019 
   23200    1205.7413   -23723.821   -24970.499    155.49968   -526.33504     977.3136    15.520487    42.070653    42.070653    84.141307 
   23300    1215.7226   -23719.394   -24976.393    2.8737596   -800.81159    152.69975    656.73311    42.072846    42.072846    84.145693 
   23400    1213.9746   -23714.962   -24970.153    85.202108    -429.0841   -598.99348    1283.6839    42.075248    42.075248    84.150497 
   23500    1218.0636   -23710.606   -24970.025   -84.895851    156.73652   -557.00595    145.58187    42.077295    42.077295     84.15459 
   23600    1211.6521   -23706.223   -24959.013   -244.39221     376.2288   -22.804568   -1086.6009    42.079158    42.079158    84.158316 
   23700    1223.0675   -23701.896   -24966.488    93.285099   -734.38729    1464.0973    -449.8547    42.080209    42.080209    84.160417 
   23800    1210.7105   -23697.674    -24949.49    212.40227    76.916862    1159.7564   -599.46651    42.081146    42.081146    84.162292 
   23900    1224.1741   -23693.538   -24959.275     184.0781    -440.9536    1142.8108   -149.62291    42.082618    42.082618    84.165237 
   24000    1233.0626   -23689.447   -24964.375   -118.18104   -608.21969    631.39015   -377.71356    42.085101    42.085101    84.170202 
   24100    1220.6642     -23685.4   -24947.508    113.75104   -333.51801    498.09569    176.67544    42.087661    42.087661    84.175321 
   24200    1225.7807   -23681.412   -24948.811   -149.39235   -197.45357     -933.247    682.52352    42.090214    42.090214    84.180428 
   24300    1224.0756    -23677.46   -24943.096    37.533621    847.33896   -42.959488   -691.77861    42.092079    42.092079    84.184158 
   24400    1249.5058   -23673.496   -24965.425   -566.30696   -633.43238    243.22711   -1308.7156    42.093796    42.093796    84.187591 
   24500    1228.7275   -23669.609   -24940.055    198.38196    -52.66517    708.67161   -60.860575    42.094914    42.094914    84.189828 
   24600    1248.6331   -23665.826   -24956.853   -286.69343   -753.58681   -248.55337    142.05989    42.096288    42.096288    84.192577 
   24700    1254.4814   -23662.159   -24959.232   -324.51066    162.23336   -1046.3282   -89.437164    42.097216    42.097216    84.194432 
   24800     1241.826   -23658.595   -24942.583   -53.716975    129.59221    492.80494   -783.54807    42.097523    42.097523    84.195047 
   24900      1231.52   -23655.079   -24928.412    697.23424    428.12161    1434.0255    229.55564    42.098618    42.098618    84.197236 
   25000    1245.4257    -23651.51    -24939.22    233.68678   -145.19929    761.38787    84.871746    42.102293    42.102293    84.204587 
   25100    1248.9328   -23647.954   -24939.291    27.632349   -91.137819    1045.3557    -871.3208    42.107941    42.107941    84.215882 
   25200    1239.7297   -23644.416   -24926.237    141.86024   -1038.6715    1312.4597    151.79254    42.114533    42.114533    84.229067 
   25300     1237.688    -23640.92    -24920.63   -24.153966   -346.76376    335.77469   -61.472823    42.121271    42.121271    84.242541 
   25400    1259.1371   -23637.375   -24939.262   -772.58233   -333.09628   -1069.3613   -915.28945    42.127647    42.127647    84.255294 
   25500    1228.0728   -23633.867   -24903.635   0.32261134    370.23933   -625.69685    256.42535    42.132417    42.132417    84.264833 
   25600    1240.9122   -23630.267    -24913.31   -536.99924   -515.30256   -604.13545    -491.5597    42.135897    42.135897    84.271794 
   25700    1242.7547   -23626.762   -24911.711   -392.76898   -187.90262   -399.90449   -590.49982    42.136403    42.136403    84.272807 
   25800    1260.4144   -23623.375   -24926.583   -667.02934    18.904498   -820.87756    -1199.115    42.134639    42.134639    84.269277 
   25900    1245.3139   -23620.063   -24907.658   -76.392832    188.44512    637.30091   -1054.9245    42.131187    42.131187    84.262374 
   26000     1251.984   -23616.787   -24911.278    108.15861   -344.30763    1134.4838    -465.7003     42.12749     42.12749     84.25498 
   26100    1253.6009   -23613.587    -24909.75    138.56968    136.02456    361.05249   -81.368013    42.124359    42.124359    84.248718 
   26200    1255.2835   -23610.488   -24908.391     385.0066    947.62982    313.09745   -105.70749    42.122011    42.122011    84.244022 
   26300    1254.9044   -23607.466   -24904.976     300.9347     816.1502    811.24836   -724.59446    42.121346    42.121346    84.242692 
   26400    1256.9727   -23604.537   -24904.186    435.09804   -5.6253482    568.55522    742.36425    42.122164    42.122164    84.244328 
   26500    1263.3319   -23601.673   -24907.897    570.88235    -354.1296     596.5165    1470.2601    42.125108    42.125108    84.250216 
   26600    1254.0556   -23598.947    -24895.58    814.82002    1263.1128    60.862097    1120.4852    42.130277    42.130277    84.260554 
   26700    1256.4137   -23596.306   -24895.377    332.20574   -457.96327    503.68844    950.89203    42.137291    42.137291    84.274581 
   26800    1263.5684    -23593.59   -24900.059   -406.51233   -998.69283   -74.418109   -146.42606    42.145383    42.145383    84.290766 
   26900    1262.1354   -23590.787   -24895.774   -551.69989   -311.93402     -1653.32    310.15431    42.152363    42.152363    84.304725 
   27000    1269.3124   -23588.023   -24900.431   -578.76502   -866.35623    173.99331   -1043.9321    42.156802    42.156802    84.313604 
   27100    1266.8265    -23585.32   -24895.158   -524.06418   -656.34644   -1355.6441    439.79796    42.158488    42.158488    84.316976 
   27200    1258.6303   -23582.592   -24883.955   -399.27295    951.79396   -1769.4153    -380.1975    42.158087    42.158087    84.316175 
   27300    1267.1131   -23579.853   -24889.987   -309.62924    377.21189   -120.93497   -1185.1646    42.155741    42.155741    84.311481 
   27400    1261.3046   -23577.135   -24881.263    120.76988    435.64333     95.90683   -169.24052    42.152602    42.152602    84.305205 
   27500    1266.9525   -23574.503   -24884.471   -29.993667    694.54025    228.63547   -1013.1567    42.149559    42.149559    84.299118 
   27600    1261.1393   -23571.906   -24875.863     484.0743    1107.6731   -299.04031     643.5901    42.146922    42.146922    84.293843 
   27700    1275.3887   -23569.424   -24888.115    163.53274   -1006.8564    207.28244    1290.1722    42.145767    42.145767    84.291535 
   27800    1267.3901   -23567.011   -24877.431    373.11121    619.70011      172.833    326.80052    42.146385    42.146385     84.29277 
   27900    1281.6181   -23564.673   -24889.804    473.26508    77.895014    578.44363    763.45659    42.148666    42.148666    84.297333 
   28000    1285.5439   -23562.472   -24891.663   -280.24604     223.0962    -1306.149    242.31464    42.152496    42.152496    84.304992 
   28100    1275.1323   -23560.406   -24878.832    246.73074    881.09061    258.61117   -399.50956    42.156215    42.156215     84.31243 
   28200    1270.0663   -23558.317   -24871.505    225.05971    531.69995    187.36261    -43.88342    42.160832    42.160832    84.321664 
   28300    1264.5642   -23556.216   -24863.714    253.01582    1230.4098   -66.802131   -404.56025    42.166016    42.166016    84.332031 
   28400    1274.0844    -23554.09   -24871.432    -276.6896     280.8129   -1115.1998     4.318116    42.170794    42.170794    84.341588 
   28500    1267.1265   -23551.888   -24862.035   -330.40263   -646.90406   -228.70365   -115.60017    42.174497    42.174497    84.348993 
   28600    1272.7361   -23549.556   -24865.504   -535.44122   -857.18461   -166.94112   -582.19793     42.17664     42.17664    84.353279 
   28700    1279.3243   -23547.244   -24870.004    -333.7642   -1714.2238    834.62316   -121.69193    42.176544    42.176544    84.353089 
   28800    1279.0172   -23544.989   -24867.431   -405.90294   -4.8116341   -224.74397    -988.1532     42.17524     42.17524     84.35048 
   28900    1270.8038   -23542.837   -24856.787    210.86841    406.14409    458.84372   -232.38258    42.172661    42.172661    84.345322 
   29000    1285.5877   -23540.702   -24869.938   -82.012205   -985.70996    1027.9088   -288.23548    42.170479    42.170479    84.340958 
   29100    1288.0926   -23538.699   -24870.525    74.060808   -39.405677     1259.818    -998.2299    42.168448    42.168448    84.336897 
   29200    1285.2948   -23536.796   -24865.729    261.59023     425.7812    352.15124    6.8382509    42.167146    42.167146    84.334291 
   29300    1276.1774   -23534.978   -24854.484    495.46969    1.5142833    1481.4127    3.4821086    42.167121    42.167121    84.334241 
   29400    1297.9689   -23533.162     -24875.2   -191.40052    517.27178    63.274556   -1154.7479    42.168938    42.168938    84.337876 
   29500    1284.8333   -23531.354    -24859.81    26.031033   -543.17686    642.53963   -21.269669    42.171215    42.171215    84.342429 
   29600    1284.0369   -23529.658   -24857.291    227.84912    557.97787    117.40407    8.1654199    42.173389    42.173389    84.346778 
   29700    1284.4093   -23528.077   -24856.095   -182.21775   -323.99263     736.2781   -958.93871    42.175999    42.175999    84.351998 
   29800    1283.1961   -23526.505   -24853.268     141.2373    515.17097    70.100367   -161.55944    42.178306    42.178306    84.356611 
   29900    1286.4854   -23525.017   -24855.181   -29.046942    359.61538   -682.64515    235.88894    42.180641    42.180641    84.361282 
   30000    1290.9473    -23523.52   -24858.297   -206.20612   -601.17011    -354.8068    337.35855    42.183088    42.183088    84.366175 
   30100    1290.1769   -23522.121   -24856.102   -178.25933   -556.67177   -341.95637    363.85014    42.184335    42.184335     84.36867 
   30200    1297.1427   -23520.806    -24861.99   -395.34644    81.741332    241.02528   -1508.8059     42.18441     42.18441    84.368819 
   30300     1299.143   -23519.537   -24862.788    -300.0844   -932.75916    433.44616    -400.9402     42.18413     42.18413    84.368261 
   30400    1306.0963   -23518.323   -24868.764    -512.4946    123.51796   -981.16381   -679.83794     42.18401     42.18401    84.368019 
   30500    1285.4718   -23517.177   -24846.293     371.1742    1464.5424   -562.40322    211.38346    42.183701    42.183701    84.367401 
   30600    1299.7925   -23515.967   -24859.889   -387.69136    742.84972   -1065.7205   -840.20333    42.184706    42.184706    84.369413 
   30700    1281.2046   -23514.789   -24839.493    240.04494    217.16751     639.8458    -136.8785     42.18509     42.18509    84.370179 
   30800      1284.08   -23513.607   -24841.284     62.01121   -630.11272    694.46995     121.6764    42.185386    42.185386    84.370771 
   30900    1278.2642   -23512.426    -24834.09    208.43814   -624.92485    933.27356    316.96572    42.185443    42.185443    84.370887 
   31000    1280.5303   -23511.157   -24835.164    261.36812    692.10455    820.62789   -728.62807     42.18589     42.18589    84.371779 
   31100    1298.2541   -23509.926   -24852.259    33.343395    442.12817   -473.13374    131.03576    42.186301    42.186301    84.372603 
   31200    1296.2791   -23508.748   -24849.039   -280.23629   -225.40014   -500.84487   -114.46386    42.187045    42.187045     84.37409 
   31300    1286.2554   -23507.523   -24837.449    52.633625    211.94071   -308.17552    254.13569    42.188156    42.188156    84.376312 
   31400    1299.0994   -23506.306   -24849.513   -105.59635    297.28678    197.11436   -811.19019    42.188911    42.188911    84.377822 
   31500    1293.2356   -23505.169   -24842.312    315.93115    599.23395   -159.90799    508.46747    42.189138    42.189138    84.378275 
   31600    1306.0978    -23504.06   -24854.502   -252.01083   -18.937892   -977.94909    240.85448      42.1904      42.1904    84.380801 
   31700    1290.6312   -23503.121   -24837.572   -13.611038   -293.45254    37.559496    215.05993    42.191469    42.191469    84.382938 
   31800     1292.386   -23502.218   -24838.483    18.058259   -438.62095    -1382.787    1875.5827    42.192114    42.192114    84.384228 
   31900    1284.5687   -23501.363   -24829.545    199.74406   -355.90362    249.77228    705.36353    42.192312    42.192312    84.384624 
   32000    1293.0771   -23500.533   -24837.512    95.555663    142.26608   -200.72541    345.12632    42.192485    42.192485    84.384969 
   32100    1299.2888   -23499.663   -24843.065   -152.12026   -1.7181204    50.586116   -505.22877    42.193323    42.193323    84.386645 
   32200    1303.4671   -23498.865   -24846.588    -223.2042    147.48116   -120.80224   -696.29153    42.193683    42.193683    84.387366 
   32300    1305.1363   -23498.215   -24847.663   -192.79933    233.54959   -814.38298    2.4354023    42.193563    42.193563    84.387125 
   32400     1295.254   -23497.677   -24836.907    117.11398    585.92633   -216.79313   -17.791269    42.193311    42.193311    84.386621 
   32500    1283.3191   -23497.134   -24824.025    578.16526    289.16169   -503.69911    1949.0332    42.193852    42.193852    84.387703 
   32600    1298.6169   -23496.561   -24839.269    27.598557    360.69721   -1194.5119     916.6104    42.195396    42.195396    84.390792 
   32700    1289.6045   -23495.987   -24829.376    218.83854    270.93243   -186.17487    571.75807    42.197186    42.197186    84.394372 
   32800    1293.3125   -23495.385   -24832.608    41.142425   -273.33492   -883.35865    1280.1208    42.198952    42.198952    84.397905 
   32900     1282.716   -23494.813    -24821.08    341.63454    524.02912    363.41781    137.45668    42.200423    42.200423    84.400847 
   33000    1290.8573   -23494.181   -24828.865    -76.46505   -343.11482   -288.56816    402.28783    42.202297    42.202297    84.404595 
   33100    1295.9602   -23493.448   -24833.408   -102.68394    677.81573   -824.98645   -160.88111    42.203991    42.203991    84.407981 
   33200    1299.1599   -23492.746   -24836.015    107.59473    451.71619    297.29951   -426.23151     42.20508     42.20508    84.410159 
   33300    1300.0039    -23492.06   -24836.202   -416.80524    -236.6475   -385.21361   -628.55459    42.205545    42.205545     84.41109 
   33400    1305.0261   -23491.514   -24840.848   -332.71073    287.99867   -1242.4681   -43.662725    42.203556    42.203556    84.407112 
   33500    1284.3276   -23491.098   -24819.031    469.38127    49.091847    966.09993    392.95204    42.200085    42.200085     84.40017 
   33600    1293.1041   -23490.644   -24827.651    393.05129   -25.763964    689.64921    515.26861    42.197597    42.197597    84.395194 
   33700    1300.3351   -23490.188   -24834.672    20.835522    719.36749    389.88658   -1046.7475     42.19653     42.19653    84.393061 
   33800     1298.389    -23489.74   -24832.212    522.07181    1276.0057    743.30528   -453.09554    42.196337    42.196337    84.392673 
   33900    1322.1214   -23489.303   -24856.313   -405.34906   -244.61285   -6.6763679   -964.75798    42.197985    42.197985     84.39597 
   34000    1308.4859   -23489.064   -24841.976    -53.37583     -497.027    786.06469   -449.16518    42.199619    42.199619    84.399238 
   34100    1296.9842   -23489.074   -24830.094   -145.64798    1217.5149   -1114.1685   -540.29039    42.200687    42.200687    84.401374 
   34200    1295.0625   -23489.256   -24828.288   -134.84317    -328.3261    384.81929   -461.02271    42.200046    42.200046    84.400093 
   34300    1300.5693   -23489.527   -24834.253    292.71301    803.79398    426.83089   -352.48583     42.19776     42.19776    84.395521 
   34400    1296.9336   -23489.794   -24830.761    116.47156    208.02925    1196.5877   -1055.2023     42.19609     42.19609     84.39218 
   34500    1299.5222   -23489.961   -24833.604   -38.251132    264.42392    113.20444   -492.38176    42.195379    42.195379    84.390758 
   34600    1289.3514   -23489.985   -24823.112    575.26056    796.16128   -394.90406    1324.5245     42.19537     42.19537     84.39074 
   34700    1304.0949   -23489.964   -24838.335    127.49823    67.613017     90.73942    224.14225    42.196416    42.196416    84.392833 
   34800    1307.1856   -23489.902   -24841.469    85.722655    340.45237    352.99699   -436.28139    42.198152    42.198152    84.396303 
   34900    1291.5131    -23489.72   -24825.082   -153.62878    111.41282    -165.8018   -406.49737    42.200843    42.200843    84.401685 
   35000    1283.3056   -23489.512   -24816.388    257.56789   -623.52164    718.42067    677.80465     42.20235     42.20235    84.404699 
   35100    1291.4316   -23489.286   -24824.564   -29.781701     173.1118   -253.27438   -9.1825177    42.203406    42.203406    84.406812 
   35200    1288.2992   -23489.001    -24821.04   -18.652063   -317.04918    236.40151    24.691482    42.203654    42.203654    84.407307 
   35300    1291.9615   -23488.646   -24824.472    99.467232    253.31254    1059.3911   -1014.3019    42.203131    42.203131    84.406262 
   35400    1304.5055   -23488.292   -24837.088   -342.88387   -685.79453    82.296047   -425.15311    42.202237    42.202237    84.404473 
   35500    1304.3951   -23488.075   -24836.757   -102.08986   -642.55584    651.75904   -315.47279    42.200126    42.200126    84.400253 
   35600    1320.0812   -23487.961   -24852.862   -804.98727   -892.80914   -300.17167    -1221.981    42.197311    42.197311    84.394622 
   35700    1309.6163   -23488.068   -24842.148    56.630763   -513.73324     307.2819    376.34363    42.192781    42.192781    84.385562 
   35800    1300.9733   -23488.266    -24833.41    243.34268   -903.12972    349.60873     1283.549    42.188871    42.188871    84.377742 
   35900     1300.093   -23488.557    -24832.79     378.1844    401.45845    60.250942     672.8438    42.186091    42.186091    84.372183 
   36000    1284.1289   -23488.892    -24816.62    938.42144     1202.255    1121.9109    491.09841    42.184692    42.184692    84.369384 
   36100     1301.779   -23489.183   -24835.159    423.08736    1038.0604    643.66637   -412.46467    42.185309    42.185309    84.370619 
   36200    1301.7688   -23489.488   -24835.454    479.89203   -221.18155    176.78686    1484.0708    42.187995    42.187995    84.375991 
   36300    1297.2106   -23489.925   -24831.178     521.4872    608.89903    105.20917     850.3534    42.191712    42.191712    84.383424 
   36400     1285.227   -23490.301   -24819.164    380.52608   -243.40127    435.13672    949.84279    42.196771    42.196771    84.393542 
   36500    1307.2519   -23490.503   -24842.139   -437.92812   -334.38204   -103.99843   -875.40387    42.202703    42.202703    84.405406 
   36600    1293.5638   -23490.595   -24828.078   -198.33201   -550.31197    447.76772   -492.45178    42.207179    42.207179    84.414358 
   36700    1291.4604   -23490.623   -24825.931   -457.39546   -783.68062   -467.94882   -120.55694    42.209872    42.209872    84.419743 
   36800    1291.8686   -23490.595   -24826.325   -281.82442   -641.02606    56.516202   -260.96339    42.210158    42.210158    84.420316 
   36900    1288.0889   -23490.531   -24822.352   -181.37179   -639.80874    202.02072   -106.32734    42.208812    42.208812    84.417624 
   37000    1287.9704   -23490.366   -24822.065    123.51804    691.93794   -290.94683   -30.437004    42.206254    42.206254    84.412509 
   37100    1295.4131   -23490.162   -24829.557   -9.2112848    350.90668   -247.79628   -130.74424    42.202601    42.202601    84.405201 
   37200    1319.6636   -23489.825   -24854.294   -582.68023   -400.92028   -700.02147   -647.09895    42.199092    42.199092    84.398185 
   37300    1297.9766   -23489.586   -24831.632    257.46505    884.03899    99.169318   -210.81316    42.195069    42.195069    84.390138 
   37400    1292.3412    -23489.33   -24825.548    439.49234    189.57646    675.14109    453.75947    42.192132    42.192132    84.384264 
   37500    1300.8148   -23489.036   -24834.016    222.02559     -1107.84    131.64223    1642.2746    42.190911    42.190911    84.381823 
   37600     1315.078   -23488.827   -24848.555    93.320965    92.157827    182.35772    5.4473468    42.191358    42.191358    84.382717 
   37700    1300.8104   -23488.711   -24833.687    488.01255    423.15408    1877.2854   -836.40186    42.193362    42.193362    84.386724 
   37800    1296.1682    -23488.65   -24828.825    532.64178    1561.2171   -593.11876    629.82702    42.197216    42.197216    84.394432 
   37900    1293.0703   -23488.514   -24825.486   -71.836655   -624.81115    274.84418    134.45701    42.202608    42.202608    84.405216 
   38000     1280.083   -23488.363   -24811.907    105.29264    632.92474    937.19293   -1254.2398    42.207183    42.207183    84.414366 
   38100    1286.9801   -23488.033   -24818.709   -60.674771   -271.35176   -160.60787    249.93531    42.210777    42.210777    84.421554 
   38200    1307.2752   -23487.656   -24839.316   -797.64369   -1647.5248    137.70961   -883.11589    42.212203    42.212203    84.424407 
   38300    1286.6049   -23487.345   -24817.633   -235.64481    18.893336   -787.26563    61.437858    42.210291    42.210291    84.420581 
   38400    1315.0407   -23487.037   -24846.726   -759.34023    -675.2084   -1520.8482    -81.96408    42.206063    42.206063    84.412127 
   38500    1291.5252   -23486.977   -24822.351    211.85057    1331.7787   -832.99872    136.77172     42.19906     42.19906     84.39812 
   38600    1300.6656   -23486.846   -24831.671    342.38514    248.83541    171.37901    606.94099    42.192816    42.192816    84.385632 
   38700    1296.6341   -23486.688   -24827.345    503.56024     525.4381    996.92871   -11.686092    42.188965    42.188965    84.377931 
   38800    1299.2168   -23486.566   -24829.894    627.87845    685.86821    348.39176    849.37539    42.187705    42.187705     84.37541 
   38900    1314.7086    -23486.48   -24845.826    106.22975    580.27307   -781.26928    519.68548    42.189636    42.189636    84.379271 
   39000    1310.5014   -23486.567   -24841.562   -29.154049   -16.559204    633.65702   -704.55996    42.192887    42.192887    84.385775 
   39100    1313.1589    -23486.69   -24844.433    127.96662    672.33436    769.75163   -1058.1861    42.196785    42.196785     84.39357 
   39200    1317.5733   -23486.956   -24849.264   -484.35601   -304.33106   -54.874905   -1093.8621     42.20117     42.20117     84.40234 
   39300    1290.2739   -23487.288   -24821.369    24.929124    482.58089    442.58161   -850.37513    42.204465    42.204465     84.40893 
   39400    1307.4846   -23487.631   -24839.507   -619.66166    14.961032   -129.58227   -1744.3637    42.206078    42.206078    84.412157 
   39500    1290.7887   -23488.007    -24822.62   -142.48302   -589.00557    629.26212   -467.70562    42.205502    42.205502    84.411003 
   39600    1298.6726     -23488.3   -24831.065    -35.60837    577.76208   -523.17687   -161.41032     42.20389     42.20389     84.40778 
   39700    1306.7971   -23488.484    -24839.65   -167.03884   -606.52337   -6.2205229    111.62738    42.202175    42.202175    84.404349 
   39800    1319.4161   -23488.593   -24852.806   -589.85121   -1161.7458    -71.13144   -536.67643    42.200305    42.200305    84.400609 
   39900    1293.4945   -23488.738   -24826.149    243.39734    192.69369   -215.27412    752.77246    42.197923    42.197923    84.395846 
   40000    1311.5776   -23488.939   -24845.047    -3.718259    1100.7488   -697.47949   -414.42406    42.195983    42.195983    84.391966 
   40100    1305.5555   -23489.203   -24839.085   -194.51469   -279.78854   -298.50339   -5.2521384    42.193942    42.193942    84.387884 
   40200    1302.5925   -23489.472    -24836.29    321.39294    307.80678    1529.5439   -873.17182    42.192597    42.192597    84.385193 
   40300    1292.2474   -23489.751   -24825.873    623.77529    460.20993    819.42485    591.69107    42.192885    42.192885     84.38577 
   40400    1305.2416   -23490.014   -24839.571   -191.51559    549.73619   -1393.4632     269.1803    42.194435    42.194435    84.388871 
   40500    1305.3977   -23490.239   -24839.957   -261.91347   -132.08737   -1034.2229    380.56989    42.195909    42.195909    84.391817 
   40600    1309.5194   -23490.498   -24844.478   -338.08135   -1115.4692   -411.58901     512.8142    42.196966    42.196966    84.393933 
   40700    1288.4041   -23490.819   -24822.967    240.40189   -91.010439    486.32684    325.88925     42.19718     42.19718    84.394359 
   40800    1299.0906   -23490.981   -24834.178    37.548903    452.48801     -455.713    115.87171    42.197764    42.197764    84.395528 
   40900     1312.994   -23491.152   -24848.725   -458.66641   -1654.0594    2.1668384    275.89333    42.198269    42.198269    84.396537 
   41000    1295.1184   -23491.333   -24830.423     527.7915    754.74732    1248.4781   -419.85093    42.198272    42.198272    84.396543 
   41100    1296.4281    -23491.44   -24831.884    4.2559319     331.5067   -106.56332   -212.17558    42.199418    42.199418    84.398836 
   41200    1303.4514   -23491.407   -24839.113    43.449905    426.81803    47.863457   -344.33177    42.200987    42.200987    84.401974 
   41300    1283.1916   -23491.324   -24818.083    145.86018   -1301.3066    2744.7961    -1005.909    42.202737    42.202737    84.405474 
   41400    1292.2101   -23491.137    -24827.22   -94.079484   -595.70032   -280.04452    593.50638    42.204465    42.204465    84.408929 
   41500    1296.2123   -23490.895   -24831.116   -253.64416   -806.23467   -645.87374    691.17591    42.205429    42.205429    84.410857 
   41600    1293.7106   -23490.608   -24828.243   -48.716786    635.74669   -988.53294     206.6359    42.205271    42.205271    84.410542 
   41700    1287.4205   -23490.255   -24821.386   -248.91636    163.86802   -528.45088   -382.16622    42.204442    42.204442    84.408885 
   41800    1288.8929   -23489.878   -24822.531    115.97671    967.73168      31.1993   -651.00085    42.202094    42.202094    84.404188 
   41900    1302.2687   -23489.493   -24835.976    59.518078   -978.58599    827.34816    329.79206    42.199353    42.199353    84.398705 
   42000    1305.2102   -23489.109   -24838.634    -302.3516   -552.87506   -591.22771    237.04797    42.197387    42.197387    84.394774 
   42100    1299.2386   -23488.727   -24832.078    263.22855    428.55409      27.1084    334.02316    42.195897    42.195897    84.391794 
   42200     1300.858   -23488.434   -24833.458    37.123492   -396.09533    783.93864   -276.47284    42.195348    42.195348    84.390696 
   42300    1313.3499   -23488.194   -24846.135    -316.1448   -12.098067    102.91712   -1039.2535    42.194938    42.194938    84.389877 
   42400    1298.9669   -23488.196   -24831.266    372.01695   -65.686586    712.45165    469.28579    42.193684    42.193684    84.387367 
   42500    1281.7601   -23488.141   -24813.419    595.49801    255.70479   -109.79033    1640.5796    42.194024    42.194024    84.388048 
   42600    1300.4487   -23487.962   -24832.563    75.741534    542.16195    -373.2717    58.334353    42.195668    42.195668    84.391336 
   42700    1315.2188   -23487.806   -24847.679   -216.89578    6.2602042   -743.37028    86.422743    42.197307    42.197307    84.394614 
   42800     1301.501   -23487.706   -24833.396    191.06854   -559.47098   -276.31941     1408.996    42.199188    42.199188    84.398377 
   42900    1297.6685   -23487.653    -24829.38    113.15401    83.613368   -505.76093    761.60958    42.201328    42.201328    84.402656 
   43000    1310.2323   -23487.599   -24842.316   -449.59383   -106.96253   -1002.1184   -239.70055    42.203262    42.203262    84.406525 
   43100    1291.0759   -23487.691   -24822.602    100.70588    1190.7797   -370.60662    -518.0554    42.203457    42.203457    84.406915 
   43200    1314.4336    -23487.88   -24846.941   -825.14854   -1220.9359   -1319.4402    64.930501    42.202099    42.202099    84.404199 
   43300    1308.8967     -23488.1   -24841.436   -262.17344   -153.33697   -1176.6062    543.42289    42.198669    42.198669    84.397338 
   43400    1297.6081   -23488.367   -24830.031    156.85863   -974.89184    1024.0337    421.43405    42.194582    42.194582    84.389164 
   43500    1296.4003   -23488.639   -24829.055    448.20715    179.91505      129.766    1034.9404    42.190687    42.190687    84.381375 
   43600    1296.2478   -23488.863   -24829.121    340.02919    584.24993    522.50997   -86.672319    42.188349    42.188349    84.376699 
   43700     1305.869   -23489.035   -24839.241    209.90531    644.70716   -198.16034     183.1691    42.187812    42.187812    84.375625 
   43800    1308.9733   -23489.222   -24842.637    330.73553   -367.63495   -150.72565    1510.5672    42.188752    42.188752    84.377503 
   43900    1294.0093   -23489.442   -24827.385    516.76679    622.08719   -134.62539    1062.8386    42.191614    42.191614    84.383227 
   44000    1298.2129   -23489.653   -24831.943    146.66021   -260.64277   -245.10551     945.7289    42.195578    42.195578    84.391155 
   44100    1290.8455   -23489.956   -24824.628    245.52091    109.21516    84.148077    543.19948    42.199352    42.199352    84.398705 
   44200    1306.0811   -23490.158   -24840.583   -202.13758    178.86607    77.454037   -862.73285    42.203886    42.203886    84.407772 
   44300    1293.8175   -23490.333   -24828.078   -395.19537   -652.83586   -579.50664    46.756391    42.207235    42.207235    84.414471 
   44400    1293.0342   -23490.463   -24827.398   -22.626998   -384.73805    -304.6811    621.53816    42.207715    42.207715     84.41543 
   44500    1295.5572   -23490.573   -24830.117   -183.58986   -1196.4638    833.87683   -188.18264    42.206097    42.206097    84.412194 
   44600    1287.6258   -23490.602   -24821.945    127.94209    37.665783    874.08335   -527.92285    42.203529    42.203529    84.407059 
   44700    1302.6348    -23490.51   -24837.372   -384.77647   -323.08766   -162.88829   -668.35345    42.201027    42.201027    84.402054 
   44800     1305.357   -23490.435   -24840.111   -206.48406   -512.64509    920.68364   -1027.4907    42.197414    42.197414    84.394828 
   44900    1304.5937    -23490.43   -24839.317    130.88685    348.33785    450.28892   -405.96622    42.193527    42.193527    84.387054 
   45000    1294.4448     -23490.5   -24828.894    520.55567    1013.7452    111.08215    436.83968    42.190091    42.190091    84.380182 
   45100    1297.6511   -23490.548   -24832.257    463.18842     166.8956    1828.0156   -605.34598    42.188409    42.188409    84.376817 
   45200    1307.2345   -23490.596   -24842.214    122.13488    845.62712   -8.4284241   -470.79405    42.188699    42.188699    84.377398 
   45300    1311.4197   -23490.602   -24846.547    30.005606   -388.53861    950.05322   -471.49779    42.190438    42.190438    84.380875 
   45400    1310.5217   -23490.629   -24845.645   -394.18321    486.47637   -234.44933   -1434.5767    42.192766    42.192766    84.385533 
   45500    1300.1659   -23490.686   -24834.995    132.15552    638.22536    131.38274   -373.14154    42.194532    42.194532    84.389063 
   45600    1297.6454   -23490.686   -24832.389   -358.11843    -763.2646    38.726813   -349.81751    42.196653    42.196653    84.393306 
   45700    1312.3376   -23490.696    -24847.59   -251.72193    217.46712   -747.14688   -225.48602    42.197664    42.197664    84.395328 
   45800    1291.4089    -23490.65   -24825.905    328.57008    280.23235    256.32821    449.14969    42.199052    42.199052    84.398104 
   45900    1301.3368   -23490.491   -24836.011    20.581794    371.83912    286.83395   -596.92769    42.201522    42.201522    84.403043 
   46000    1289.9071   -23490.362   -24824.063    240.37765    1201.3309   -526.79317    46.595248    42.203481    42.203481    84.406962 
   46100    1296.4494   -23490.209   -24830.676   -358.08435    295.45579   -996.77908   -372.92977    42.204854    42.204854    84.409708 
   46200    1306.1911   -23490.035   -24840.574   -704.02725   -913.53159   -277.45678   -921.09339    42.204801    42.204801    84.409602 
   46300    1296.9244   -23489.908   -24830.866    -214.1563   -56.980683    78.087159   -663.57537    42.202723    42.202723    84.405445 
   46400    1284.2228   -23489.768   -24817.592    482.35068   -844.25895     1366.589    924.72201    42.199973    42.199973    84.399946 
   46500     1304.434    -23489.46   -24838.182   -2.3603482     151.5206   -52.639145    -105.9625    42.198613    42.198613    84.397225 
   46600    1286.3518   -23489.147   -24819.173    465.23186    682.26704   -1.0957433     714.5243    42.197795    42.197795     84.39559 
   46700    1288.6317   -23488.858   -24821.241    426.32939    1278.8378    404.35223   -404.20186    42.197431    42.197431    84.394863 
   46800    1296.8629   -23488.476    -24829.37    245.44552   -269.33273    748.56197    257.10732    42.198533    42.198533    84.397066 
   46900    1307.7074   -23488.076   -24840.183   -260.53637   -468.87177   -431.23774    118.50041    42.200436    42.200436    84.400871 
   47000    1306.8448   -23487.755   -24838.969   -327.80837   -273.42547   -574.69841   -135.30123    42.201659    42.201659    84.403319 
   47100    1293.0576   -23487.549   -24824.508   -28.448244    372.38111    265.85526   -723.58111    42.201386    42.201386    84.402773 
   47200    1314.7314   -23487.386   -24846.755   -460.82165   -291.41159   -1503.5681    412.51474    42.200123    42.200123    84.400245 
   47300    1300.3086    -23487.31   -24831.766     76.19159     110.5069    -279.4316    397.49947     42.19807     42.19807     84.39614 
   47400    1291.9293   -23487.171   -24822.964    595.60469    1504.4983   -112.83793    395.15367    42.196784    42.196784    84.393568 
   47500    1305.9857   -23486.996   -24837.323   -97.101284   -633.90895     455.4835   -112.87841    42.196972    42.196972    84.393944 
   47600     1311.615   -23486.878   -24843.025   -94.102212    559.07686   -58.430273   -782.95322    42.196803    42.196803    84.393606 
   47700     1303.646   -23486.852   -24834.759     144.6531    103.68084    594.22734   -263.94888    42.196584    42.196584    84.393167 
   47800    1301.3314   -23486.863   -24832.377    233.48151   -2.7333582    276.54802    426.62986    42.196913    42.196913    84.393826 
   47900    1306.0911   -23487.022   -24837.457    299.44133   -10.266892    -317.7401     1226.331    42.197115    42.197115     84.39423 
   48000    1292.0772   -23487.147   -24823.093    405.05954    662.40629    202.44712    350.32522    42.198672    42.198672    84.397345 
   48100    1283.2039   -23487.231   -24814.002    587.48379    1341.0724   -228.15489    649.53386    42.201302    42.201302    84.402605 
   48200    1308.3353   -23487.283   -24840.038   -271.43688   -182.04145    274.44607   -906.71526    42.204412    42.204412    84.408825 
   48300    1289.2415   -23487.285   -24820.299    263.54169    1142.2915    1053.5212   -1405.1876    42.207177    42.207177    84.414354 
   48400    1295.0612   -23487.251   -24826.282   -68.568153   -398.55533    1164.6118   -971.76098    42.209911    42.209911    84.419823 
   48500     1315.341   -23487.164   -24847.163   -819.57544   -1095.2672    -1032.159    -331.3001    42.211779    42.211779    84.423559 
   48600    1303.9935   -23487.081   -24835.347   -460.78787   -1064.2088   -175.07676   -143.07803    42.211304    42.211304    84.422607 
   48700    1306.7081   -23487.057   -24838.131   -601.33293   -303.08695    250.79739   -1751.7092    42.208687    42.208687    84.417375 
   48800    1301.8451   -23487.052   -24833.098   -7.7346049   -1089.8086     9.240816    1057.3639    42.204646    42.204646    84.409292 
   48900    1304.2895   -23487.001   -24835.574   -190.85675   -742.63399   -170.22667    340.29042    42.200773    42.200773    84.401545 
   49000    1304.2122   -23486.938    -24835.43    207.86637    550.58542     24.19516     48.81853    42.196675    42.196675     84.39335 
   49100    1310.0142   -23486.921   -24841.413   -33.964956    673.50981   -908.34113    132.93645    42.193216    42.193216    84.386431 
   49200    1301.1528   -23487.024   -24832.353    345.66017    662.25198   -244.44312    619.17165     42.19014     42.19014    84.380281 
   49300    1290.9762   -23487.074   -24821.881    619.13365    600.21582     1374.455   -117.26983    42.189079    42.189079    84.378159 
   49400    1287.9964   -23487.031   -24818.758    885.67376    734.03666     1081.389    841.59563    42.190891    42.190891    84.381782 
   49500    1290.0804   -23486.913   -24820.794    372.40215   -160.60994    669.05597    608.76042    42.195708    42.195708    84.391416 
   49600    1282.0187   -23486.688   -24812.234    475.49392   -57.734439      504.776    979.44021    42.202006    42.202006    84.404012 
   49700    1300.4807   -23486.306    -24830.94   -267.16112   -1436.9306    78.262892    557.18433    42.209379    42.209379    84.418758 
   49800     1300.416   -23485.834   -24830.402   -641.47616   -548.86693   -770.77497   -604.78659    42.216289    42.216289    84.432578 
   49900    1297.8887   -23485.344   -24827.299   -617.09317   -628.61602   -560.15149   -662.51201    42.220618    42.220618    84.441237 
   50000    1303.8451   -23484.851   -24832.964   -549.99475     651.0494   -643.43533   -1657.5983    42.221953    42.221953    84.443907 
Loop time of 1414.02 on 1 procs for 50000 steps with 8000 atoms

Pair  time (%) = 1274.33 (90.1209)
Neigh time (%) = 99.1126 (7.00929)
Comm  time (%) = 8.24426 (0.583038)
Outpt time (%) = 0.622775 (0.0440429)
Other time (%) = 31.7121 (2.2427)

Nlocal:    8000 ave 8000 max 8000 min
Histogram: 1 0 0 0 0 0 0 0 0 0
Nghost:    8227 ave 8227 max 8227 min
Histogram: 1 0 0 0 0 0 0 0 0 0
Neighs:    271324 ave 271324 max 271324 min
Histogram: 1 0 0 0 0 0 0 0 0 0

Total # of neighbors = 271324
Ave neighs/atom = 33.9155
Neighbor list builds = 5000
Dangerous builds = 0
unfix		1

# Melt half the system
region  liquid block INF INF INF INF INF ${nzhalf}
region  liquid block INF INF INF INF INF 10
group	liquid_group region liquid
3987 atoms in group liquid_group

# Heat up one side to Tmelt to make sure it is melted
fix 2 liquid_group npt temp ${Tmelt} ${Tmelt} 1 z 0 0 10 drag 1.0
fix 2 liquid_group npt temp 2000 ${Tmelt} 1 z 0 0 10 drag 1.0
fix 2 liquid_group npt temp 2000 2000 1 z 0 0 10 drag 1.0
run		${eqsteps}
run		50000
Memory usage per processor = 5.95825 Mbytes
Step Temp TotEng PotEng Press Pxx Pyy Pzz Lx Ly Lz 
   50000    1303.8451   -23484.851   -24832.964   -549.99475     651.0494   -643.43533   -1657.5983    42.221953    42.221953    84.443907 
   50100     1300.193   -23482.653    -24826.99   -450.03864    230.16228   -252.87529   -1327.4029    42.221953    42.221953    84.443428 
   50200    1306.2307   -23477.076   -24827.656   -550.78513    22.281929   -550.46325   -1124.1741    42.221953    42.221953    84.442178 
   50300    1302.2141   -23470.691   -24817.117   -116.82763      211.241     234.7446   -796.46851    42.221953    42.221953    84.440383 
   50400    1304.4402   -23464.884   -24813.612    101.46608    734.55763     506.8059   -936.96529    42.221953    42.221953    84.438141 
   50500    1314.1868   -23459.056   -24817.862    22.968086   -31.672906    852.99276    -752.4156    42.221953    42.221953    84.435418 
   50600    1305.3856   -23452.753   -24802.458    269.03504    720.47865    768.13145   -681.50497    42.221953    42.221953    84.432228 
   50700    1316.1596   -23446.082   -24806.928    430.70137    759.25581    959.04294   -426.19463    42.221953    42.221953    84.428856 
   50800    1323.4347   -23439.306   -24807.674    370.91861    677.82969    1123.2844   -688.35829    42.221953    42.221953    84.425322 
   50900    1315.8979   -23432.479   -24793.055    859.81439    1582.1714    1023.7018   -26.430115    42.221953    42.221953    84.421554 
   51000    1330.0934   -23425.582   -24800.835    983.10777    1927.9051    839.26823    182.15002    42.221953    42.221953    84.417767 
   51100    1336.5275   -23418.574   -24800.479    925.90959    1314.3918    1488.0814   -24.744351    42.221953    42.221953    84.414033 
   51200    1343.4284   -23411.522   -24800.563    814.22558    1301.8338    262.99822    877.84477    42.221953    42.221953    84.410548 
   51300    1332.7873   -23404.472    -24782.51    1328.7853    1493.6495    1642.3856    850.32072    42.221953    42.221953    84.407784 
   51400    1341.4919   -23397.372    -24784.41    1192.6249    1132.0624    1775.6268    670.18562    42.221953    42.221953    84.405565 
   51500    1346.5085    -23390.28   -24782.505     1469.107    1950.4015    1227.1979    1229.7216    42.221953    42.221953    84.403755 
   51600    1343.5746   -23383.111   -24772.303    2079.0454    2882.7382    2081.9169    1272.4811    42.221953    42.221953    84.402583 
   51700    1344.8675   -23375.939   -24766.468    2272.2829    2344.9534    2140.8096    2331.0858    42.221953    42.221953    84.401956 
   51800    1357.4322    -23368.78     -24772.3    1999.9471    1925.4569     2121.646    1952.7383    42.221953    42.221953    84.402243 
   51900    1361.5812   -23361.543   -24769.352    1958.1689    2179.0417    2602.0347    1093.4305    42.221953    42.221953    84.403552 
   52000    1365.5259   -23354.341   -24766.229    2267.3917    2221.2326    3021.9389    1559.0036    42.221953    42.221953     84.40554 
   52100    1354.7712   -23347.144   -24747.912    2655.7221     3251.721    1732.9253    2982.5198    42.221953    42.221953    84.408546 
   52200    1365.5167   -23339.968   -24751.846    2630.9623    3199.9358    1966.0531    2726.8979    42.221953    42.221953     84.41312 
   52300    1359.4672   -23332.739   -24738.362    3212.8172    3566.2712    3156.5411    2915.6394    42.221953    42.221953    84.419152 
   52400    1378.2127   -23325.431   -24750.437    2903.1028    3391.3354    2349.4794    2968.4937    42.221953    42.221953     84.42644 
   52500    1389.8328   -23318.182   -24755.202    2765.5393     2886.259    2814.0896    2596.2693    42.221953    42.221953    84.435195 
   52600    1393.3583   -23310.843   -24751.509    2763.7133    2375.1333    3781.1942    2134.8124    42.221953    42.221953    84.445384 
   52700    1386.3095   -23303.511   -24736.888    2814.3208    3295.6846    3293.3848    1853.8931    42.221953    42.221953    84.456538 
   52800    1387.8599   -23296.211   -24731.192    3170.4312    3352.3937    3586.2605    2572.6393    42.221953    42.221953    84.468646 
   52900    1390.0961   -23288.929   -24726.222    3200.3151    3845.2366     3104.304    2651.4048    42.221953    42.221953    84.481999 
   53000    1392.8179   -23281.625   -24721.731    2865.1741    3458.0324    2989.5939    2147.8959    42.221953    42.221953    84.496679 
   53100    1398.4843   -23274.277   -24720.242    3287.0989    3495.1495    3624.8792    2741.2681    42.221953    42.221953    84.512481 
   53200    1407.2232   -23266.961   -24721.962    3210.3655    2594.7537    2988.8267    4047.5162    42.221953    42.221953    84.529453 
   53300    1401.5422   -23259.665   -24708.792    3328.1672    3697.4099    2869.3045     3417.787    42.221953    42.221953    84.548206 
   53400    1411.4712   -23252.338   -24711.731    3250.1399    4363.7366    3334.0144    2052.6688    42.221953    42.221953    84.568412 
   53500     1406.046   -23244.939   -24698.723    3561.4137    3896.0649    4336.4345    2451.7416    42.221953    42.221953    84.589398 
   53600    1411.9286   -23237.603   -24697.469    3228.4623      4778.26    2933.9939    1973.1328    42.221953    42.221953    84.611112 
   53700    1420.7186   -23230.218   -24699.173    3206.1729    3874.2451    3913.4905    1830.7832    42.221953    42.221953    84.633534 
   53800    1410.1443   -23222.812   -24680.833    3703.4035    3960.7341    4466.5346    2682.9417    42.221953    42.221953    84.656462 
   53900    1421.4953   -23215.439   -24685.196    3215.4689    4733.0873    2767.5121    2145.8074    42.221953    42.221953    84.680073 
   54000    1422.1716   -23207.993    -24678.45    3193.1878     3707.297    3872.8978    1999.3686    42.221953    42.221953    84.704355 
   54100    1428.2769    -23200.61   -24677.379    3290.5231    4727.1846    2590.6687    2553.7159    42.221953    42.221953    84.729146 
   54200    1430.4561    -23193.24   -24672.263    3556.6301    4211.3696    3507.1255    2951.3952    42.221953    42.221953    84.754663 
   54300    1442.0558   -23185.842   -24676.859     3213.344    4116.0551    3233.8336    2290.1434    42.221953    42.221953    84.781138 
   54400    1434.9462   -23178.426   -24662.092    3313.3232    4507.2692    3647.4699    1785.2304    42.221953    42.221953    84.808481 
   54500    1446.5838   -23171.028   -24666.726    3045.5109    4240.9295     2885.361    2010.2422    42.221953    42.221953    84.836348 
   54600     1460.527   -23163.563   -24673.678      2801.75    3355.1875    3431.2537    1618.8088    42.221953    42.221953     84.86466 
   54700     1462.894   -23156.115   -24668.677    2951.1099    3411.1656    3781.8367    1660.3274    42.221953    42.221953    84.893105 
[...]
  336300    1309.5769    -23508.45    -24862.49   -27.184599   -927.59318    631.65686    214.38252    42.288169    42.288169    83.920341 
  336400    1297.2507   -23508.449   -24849.744    44.269611    163.35661    305.98876   -336.53654    42.288835    42.288835     83.96008 
  336500    1296.0083   -23508.463   -24848.473   -236.44146   -504.94322   -772.56363    568.18246    42.289552    42.289552    83.984592 
  336600    1301.2735   -23508.456   -24853.911   -530.54033   -149.59558   -1142.5403   -299.48511    42.290062    42.290062    84.034293 
  336700    1284.6281   -23508.448   -24836.692   -23.038297    845.20723   -780.82485   -133.49728    42.290307    42.290307      84.0383 
  336800    1283.4383   -23508.456   -24835.469   -9.9239429   -387.55464    297.04261    60.740201    42.290487    42.290487    84.007439 
  336900    1292.4366   -23508.491   -24844.808    89.055571    574.32968     70.20335   -377.36632    42.290583    42.290583    83.958609 
  337000    1295.6528   -23508.495   -24848.138    372.95642    644.97782    909.63623   -435.74477    42.290698    42.290698    83.889195 
  337100    1295.8359   -23508.466   -24848.298     641.2945    95.577583    402.37515    1425.9308    42.291109    42.291109    83.841197 
  337200     1297.684   -23508.483   -24850.226    535.45404    1078.5462    730.68134   -202.86539    42.291693    42.291693    83.868547 
  337300     1283.484   -23508.542   -24835.603    528.42013   -37.523661    585.68554    1037.0985    42.292472    42.292472    83.928329 
  337400    1292.8391   -23508.575   -24845.309   -512.95239    144.56758   -714.74496   -968.67978    42.293171    42.293171    84.043294 
  337500    1288.4726   -23508.523   -24840.742   -1010.4041   -1245.6943   -397.32645   -1388.1916    42.293586    42.293586    84.103664 
  337600    1280.8877   -23508.522   -24832.898   -545.91573   -1112.4927   -152.54094   -372.71358    42.293473    42.293473    84.096659 
  337700    1285.8266   -23508.554   -24838.037    -740.2916   -1370.8409   -1366.1151    516.08116     42.29292     42.29292    84.047257 
  337800    1284.2223   -23508.568   -24836.392     102.9957   -38.085724    224.97365    122.09918    42.292045    42.292045    83.976538 
  337900    1300.7145   -23508.573   -24853.449   -10.989838   -582.51056   -919.79572    1469.3368    42.291179    42.291179    83.905645 
  338000    1309.3862   -23508.565   -24862.407   -160.74661   -651.79985    238.54906   -68.989051    42.290279    42.290279    83.916554 
  338100    1301.9245   -23508.562   -24854.689   -476.81693   -194.10827   -987.19366   -249.14887    42.289498    42.289498    83.941608 
  338200    1288.8093   -23508.558   -24841.125    98.676642    613.79243   -144.61556   -173.14695    42.288733    42.288733    83.965822 
  338300    1303.6486   -23508.581   -24856.491   -312.62366   -569.74615   -775.52599    407.40117     42.28805     42.28805    83.997205 
  338400    1294.8363   -23508.596   -24847.395   -523.99933    197.69426   -1146.4345   -623.25777    42.287289    42.287289    84.060268 
  338500    1293.5182   -23508.576   -24846.011   -598.88622   -437.91399  -0.23404249   -1358.5106    42.286548    42.286548    84.077939 
  338600    1295.1358   -23508.618   -24847.726   -14.519715     97.43356   -231.26296    90.270254    42.285921    42.285921    84.015035 
  338700    1305.2764   -23508.597    -24858.19   -65.337905   -350.29805    219.19861   -64.914273    42.285427    42.285427    83.960226 
  338800    1306.3054    -23508.59   -24859.247    486.39841    184.58496    72.039553    1202.5707    42.285003    42.285003    83.926932 
  338900    1290.9319   -23508.659   -24843.421    174.83911   -778.51426    246.33987    1056.6917    42.284678    42.284678     83.97683 
  339000    1296.4985    -23508.65   -24849.167   -886.11703   -926.96449   -12.287363   -1719.0992    42.284268    42.284268    84.081223 
  339100    1289.7918   -23508.619   -24842.202    -250.5563   -293.18218   -154.27608   -304.21064    42.283772    42.283772    84.096832 
  339200    1290.3165   -23508.631   -24842.756   -564.06121    110.06881   -1057.2341   -745.01833    42.283228    42.283228    84.078049 
  339300    1301.4757   -23508.698   -24854.361   -486.98347    1160.8753    -1424.723   -1197.1028    42.282562    42.282562    84.010472 
  339400    1298.0319   -23508.689   -24850.791    276.09656    714.01119      522.422    -408.1435    42.282007    42.282007    83.916737 
  339500    1286.3782   -23508.659   -24838.713    1244.3531    1813.9179    760.50502    1158.6365    42.281809    42.281809     83.86515 
  339600     1307.533   -23508.721   -24860.647    181.32879   -155.66097    354.62664    345.02071     42.28208     42.28208    83.904983 
  339700    1291.0209   -23508.698   -24843.551   -431.97766    188.48344   -699.83731    -784.5791    42.282484    42.282484    83.988604 
  339800    1279.9371   -23508.675   -24832.069   -109.21015   -63.762868   -420.85762    156.99004    42.282767    42.282767    84.021107 
  339900    1288.2711    -23508.68   -24840.691   -368.83932    -298.7597    106.36291   -914.12116    42.282873    42.282873    84.030937 
  340000    1287.6764   -23508.721   -24840.117     472.4791   -991.61895    1620.5204     788.5358    42.283001    42.283001    83.977466 
  340100    1309.5189   -23508.729   -24862.709    118.30557    460.22027     1314.181   -1419.4846    42.283276    42.283276     83.93064 
  340200    1278.3592    -23508.73   -24830.492    1065.3416    874.98767     2031.043    289.99416    42.283884    42.283884    83.861903 
  340300     1302.251   -23508.732   -24855.197    879.00032    311.65346    1741.6563    583.69121    42.284968    42.284968    83.809618 
  340400    1291.2668   -23508.737   -24843.845    1265.9829    1265.5689    2292.0325    240.34733     42.28635     42.28635    83.812011 
  340500    1290.2346   -23508.806   -24842.847    740.01842     1679.218    468.63512    72.202118    42.288077    42.288077    83.873129 
  340600    1309.8528   -23508.794   -24863.119   -203.18848    226.82882   -564.16491   -272.22934    42.289963    42.289963    83.947848 
  340700    1293.8878   -23508.822    -24846.64   -138.47888     141.7242   -1052.7342    495.57336    42.291667    42.291667    84.012864 
  340800    1276.7247     -23508.8   -24828.872   -627.41452   -859.27345   -280.83277   -742.13736    42.292903    42.292903    84.094683 
  340900    1279.1858   -23508.781   -24831.397   -654.71653   -215.01854   -1258.2698   -490.86127    42.293526    42.293526    84.120175 
  341000    1289.4201   -23508.804   -24842.002    -927.1625   -42.445529   -1598.6669   -1140.3751    42.293695    42.293695    84.097766 
  341100    1281.6582   -23508.844   -24834.017   -89.133941   -1065.4888    336.94601    461.14098    42.293599    42.293599     84.01634 
  341200    1294.8254   -23508.799   -24847.586   -343.98715   -1000.2496   -764.37039    732.65854    42.293382    42.293382    83.970507 
  341300    1281.7779   -23508.807   -24834.104    310.07745    1215.8261    277.70006   -563.29383     42.29297     42.29297    83.958711 
  341400    1282.7768   -23508.847   -24835.176    865.60144    494.83434    1823.5258    278.44419    42.292831    42.292831    83.893987 
  341500    1299.8061   -23508.879   -24852.816     818.5608    639.56348    1428.4302    387.68875    42.293087    42.293087    83.811718 
  341600    1298.6378    -23508.88   -24851.609    1003.5991    1356.0808     585.4084    1069.3079    42.293636    42.293636    83.810168 
  341700    1289.5577   -23509.008   -24842.348    263.70423    1446.8594   -367.31227   -288.43446    42.294366    42.294366    83.937438 
  341800     1280.371   -23508.922   -24832.764   -431.64835    22.313815   -214.84717   -1102.4117    42.295196    42.295196    84.042483 
  341900    1292.7302   -23508.904   -24845.525   -824.50035   -1078.4066    -774.3156   -620.77884    42.295877    42.295877    84.070303 
  342000    1283.8839   -23508.917   -24836.391   -458.69185   -1289.0565    85.275318   -172.29434    42.296191    42.296191    84.049494 
  342100    1300.6738    -23508.99   -24853.825   -423.26942   -1228.8962    7.4608336    -48.37285    42.296269    42.296269    83.972901 
  342200     1299.982   -23509.002    -24853.12    147.53848    814.52383   -339.99265   -31.915744    42.296245    42.296245    83.874989 
  342300    1303.7451   -23508.967   -24856.977    732.79072    880.18609   -202.33394      1520.52    42.296447    42.296447    83.793363 
  342400    1280.0258   -23508.988   -24832.473     1136.623    1183.4019    1483.3991    743.06807    42.296932    42.296932    83.817349 
  342500    1298.7235   -23509.042   -24851.859    27.403594    203.28364    520.76681   -641.83967    42.297699    42.297699    83.905726 
  342600    1294.2756   -23509.047   -24847.266   -202.54507    67.600708   -379.85011   -295.38581    42.298478    42.298478    83.990338 
  342700    1291.8716   -23509.007    -24844.74   -716.35032   -245.92849   -1080.9122   -822.21026    42.299071    42.299071    84.033206 
  342800    1284.3572    -23509.02   -24836.984   -260.26226   -113.65342   -306.54817    -360.5852     42.29935     42.29935    84.002659 
  342900    1288.3225   -23509.028   -24841.092   -150.36196   -501.18145   -73.383837    123.47942    42.299441    42.299441    83.946051 
  343000    1289.9292   -23509.034   -24842.759    86.706769    411.58214   -449.15584      297.694    42.299464    42.299464    83.896248 
  343100     1295.613   -23509.024   -24848.625    618.10037    1606.8289    346.07737    -98.60514    42.299551    42.299551    83.871787 
  343200    1299.2009   -23509.042   -24852.354    223.58548    1258.6225   -552.83378   -35.032247    42.299892    42.299892    83.847463 
  343300    1293.1878   -23509.022   -24846.116    609.96933    1114.4178    177.34562    538.14454     42.30042     42.30042    83.827465 
  343400    1304.7539   -23509.029   -24858.082    513.14811    1356.0488   -66.659653    250.05523    42.301154    42.301154    83.826054 
  343500    1289.0859   -23509.028   -24841.881    441.65644    1271.7702   -176.88618     230.0853    42.302116    42.302116    83.833282 
  343600    1303.6336   -23509.048   -24856.943   -246.56818   -631.83378    187.40402   -295.27479    42.303124    42.303124    83.870548 
  343700    1287.6479   -23509.044    -24840.41    285.72214    541.95062     106.3079    208.90791    42.303942    42.303942    83.915078 
  343800    1283.4308   -23509.048   -24836.053   -301.22195   -649.76119   -396.40138     142.4967    42.304654    42.304654    83.965454 
  343900    1279.9379   -23509.049   -24832.443   -595.42662    228.89264   -1862.6922   -152.48035    42.304973    42.304973    84.010512 
  344000    1293.9171    -23509.05   -24846.898    -635.1609   -530.70956    -1583.964    209.19085    42.304818    42.304818    84.008295 
  344100     1289.314   -23509.052    -24842.14   -858.54694    -1940.459    500.08717    -1135.269    42.304335    42.304335    83.997329 
  344200    1299.9501   -23509.063   -24853.149    -389.2052   -52.834146   -1128.3141    13.532594    42.303694    42.303694    83.950835 
  344300    1291.9369   -23509.057   -24844.857   -51.720039   -542.93283   -854.27907    1242.0518    42.302959    42.302959    83.930058 
  344400    1290.7639   -23509.071   -24843.659   -96.440419   -954.79123     679.3587   -13.888725    42.302192    42.302192    83.958953 
  344500    1286.3908   -23509.061   -24839.127   -241.24458    255.37971   -289.85345      -689.26    42.301455    42.301455    83.965595 
  344600    1298.9952   -23509.073   -24852.172   -125.99631   -516.81915   -210.36846    349.19868    42.300712    42.300712    83.929116 
  344700    1289.6507   -23509.102   -24842.539     509.8015    253.30693    1498.0835   -221.98588    42.300049    42.300049    83.880745 
  344800     1297.531   -23509.085    -24850.67    732.46678    473.10385    1103.0864    621.21013    42.299742    42.299742    83.807009 
  344900    1291.2187   -23509.083   -24844.141     1067.209    932.86897    1042.8127    1225.9454    42.299701    42.299701    83.782131 
  345000    1290.9649   -23509.122   -24843.917    839.19618    899.34313    615.25884    1002.9866    42.299973    42.299973    83.827145 
  345100    1288.3075    -23509.18   -24841.228    96.173069   -590.63727   -303.89501    1183.0515    42.300467    42.300467    83.920115 
  345200    1280.3605   -23509.331   -24833.162   -536.42291   -1194.2415   -563.31213    148.28495    42.300795    42.300795    84.070883 
  345300    1282.7127   -23509.212   -24835.475   -1534.5544   -1946.1257   -824.71489   -1832.8225    42.300619    42.300619    84.199931 
  345400    1276.0763   -23509.223   -24828.624   -1247.9449   -233.18261   -2038.7403   -1471.9117    42.299831    42.299831    84.193803 
  345500    1291.9781   -23509.409   -24845.253   -871.13199   -284.39113   -1159.2266   -1169.7782    42.298624    42.298624    84.073113 
  345600    1286.4937   -23509.543   -24839.716    89.139474     1565.394   -775.28467   -522.69089    42.297385    42.297385    83.898935 
  345700    1301.3595   -23509.476   -24855.019    1177.0736    2093.0085    519.05489    919.15759    42.296595    42.296595    83.741451 
  345800    1299.8502   -23509.411   -24853.394    1639.3737    1366.1222    2470.8693    1081.1297    42.296604    42.296604    83.688254 
  345900    1320.9867   -23509.499   -24875.336    732.39956   -168.13866    933.20729    1432.1301    42.297357    42.297357    83.736328 
  346000    1290.0438   -23509.617   -24843.461    606.82363    17.075101    1635.2456     168.1502     42.29839     42.29839    83.874263 
  346100    1292.1138   -23509.605   -24845.589   -488.91824    -445.1686   -81.741774   -939.84435    42.299448    42.299448    84.006498 
  346200    1287.7883   -23509.542   -24841.053   -1116.0277   -1674.0391   -938.76583   -735.27808    42.300129    42.300129    84.065562 
  346300    1295.7729   -23509.544   -24849.311   -801.84282   -1413.2414   -849.89838   -142.38866    42.300172    42.300172    84.064139 
  346400    1290.1051   -23509.565   -24843.471   -709.58133   -787.79286     67.46528   -1408.4164     42.29978     42.29978    84.040795 
  346500    1279.4942   -23509.634    -24832.57    260.90551    344.37253    655.61596   -217.27196    42.299319    42.299319    83.945512 
  346600    1289.0786   -23509.628   -24842.473    736.01084   -363.13627    1596.0268    975.14202    42.299067    42.299067    83.841198 
  346700    1293.8886   -23509.632   -24847.451    430.33818    1046.2207    -104.5542    349.34801    42.299033    42.299033    83.839247 
  346800    1293.7963   -23509.643   -24847.366    113.91783    897.31287    44.403862   -599.96324    42.299148    42.299148    83.905205 
  346900    1299.9867   -23509.626   -24853.749   -71.383551    1381.3942   -414.97043   -1180.5744    42.299398    42.299398      83.9341 
  347000    1309.8444   -23509.648   -24863.965   -28.914837   -1137.8647    867.06877    184.05142    42.299882    42.299882    83.888636 
  347100    1301.9239   -23509.629   -24855.756   -9.4161699   -67.128715   -534.34772    573.22792    42.300459    42.300459    83.866399 
  347200    1298.7042   -23509.634   -24852.432    138.18355     679.3339    596.87108   -861.65433    42.301034    42.301034    83.880776 
  347300     1289.041   -23509.642   -24842.448    444.26312   -51.632056    1845.8113   -461.38991    42.301779    42.301779    83.871252 
  347400    1285.0961   -23509.672   -24838.399    1129.2238    1135.3767    1425.3919    826.90276    42.302759    42.302759    83.816512 
  347500     1280.477   -23509.649     -24833.6    990.58521    1074.6848    734.11121    1162.9596    42.304065    42.304065     83.80039 
  347600    1293.9626   -23509.695   -24847.591     492.0335    1465.3352   -50.695362    61.460662    42.305487    42.305487    83.853717 
  347700    1281.0759   -23509.713   -24834.284    351.38301    779.97896    381.83869    -107.6686    42.306802    42.306802    83.920241 
  347800     1287.499   -23509.684   -24840.896    -230.9436    416.86885   -658.46541   -451.23422    42.307962    42.307962    83.975583 
  347900    1311.4537   -23509.708   -24865.688   -1107.4309   -923.84678   -1191.5306   -1206.9153     42.30887     42.30887    83.964702 
  348000    1287.7726   -23509.683   -24841.178    21.599217    -783.5303    18.239616    830.08834     42.30939     42.30939    83.910401 
  348100     1271.571   -23509.683   -24824.426    442.99191   -378.82434    688.84372    1018.9564    42.309652    42.309652    83.904069 
  348200    1298.9353   -23509.689   -24852.725   -454.24371    511.44627   -800.48126   -1073.6961    42.309877    42.309877    83.924795 
  348300    1277.7941   -23509.686   -24830.864    375.72352     456.9311     706.5046   -36.265133    42.310079    42.310079    83.903315 
  348400    1292.2934   -23509.707   -24845.877    277.06293     613.4291   -376.82962     594.5893    42.310461    42.310461    83.860894 
  348500    1302.4862   -23509.696   -24856.404   -102.26295    549.76046   -411.55978   -444.98954     42.31087     42.31087     83.84486 
  348600    1288.9852   -23509.701    -24842.45    530.98383    1056.6226    129.99877    406.33012    42.311285    42.311285    83.825602 
  348700     1285.942   -23509.718   -24839.321     415.8003    796.89941   -637.28705    1087.7885    42.311818    42.311818    83.851681 
  348800    1287.0878   -23509.787   -24840.574   -351.46523   -164.27915   -740.15546   -149.96107    42.312299    42.312299    83.944585 
  348900    1293.0301    -23509.74   -24846.671     -1047.58   -737.79568   -1709.5607   -695.38356    42.312554    42.312554    84.019255 
  349000     1281.913   -23509.779   -24835.215   -424.52023    405.58449   -136.11057   -1543.0346    42.312429    42.312429    84.002113 
  349100     1301.294   -23509.927   -24855.403   -212.43768     482.0971   -303.47014   -815.93999    42.312322    42.312322    83.870967 
  349200    1304.2518   -23509.924   -24858.457    771.81481   -461.23646    1526.5126    1250.1683    42.312327    42.312327    83.718525 
  349300    1294.1899   -23509.867   -24847.998    1239.9542    911.55017    931.87243      1876.44    42.312597    42.312597    83.684211 
  349400    1312.3727   -23509.972   -24866.902    173.96246    848.10074     -432.701    106.48763    42.313171    42.313171    83.793744 
  349500    1290.0412   -23509.896   -24843.736    -171.4958   -106.42351    860.05008    -1268.114    42.313821    42.313821    83.884279 
  349600    1297.9467   -23509.915    -24851.93   -507.54335    292.63585    364.34019   -2179.6061     42.31449     42.31449    83.875001 
  349700    1297.4032   -23509.958    -24851.41    447.95535   -853.25772    1678.1334    518.99037    42.315148    42.315148    83.778737 
  349800     1284.864   -23509.918   -24838.406    964.21771    353.91769    839.96607    1698.7694    42.315859    42.315859    83.742453 
  349900    1284.8688   -23509.942   -24838.435     904.6343    1017.5516    436.38764    1259.9637    42.316632    42.316632    83.785733 
  350000    1284.6348   -23509.974   -24838.224     170.6457    23.798129    627.81656    -139.6776    42.317477    42.317477    83.856886 
Loop time of 5552.73 on 1 procs for 200000 steps with 8000 atoms

Pair  time (%) = 5001.36 (90.0704)
Neigh time (%) = 396.545 (7.14146)
Comm  time (%) = 32.3025 (0.581742)
Outpt time (%) = 2.48299 (0.0447166)
Other time (%) = 120.035 (2.16174)

Nlocal:    8000 ave 8000 max 8000 min
Histogram: 1 0 0 0 0 0 0 0 0 0
Nghost:    8226 ave 8226 max 8226 min
Histogram: 1 0 0 0 0 0 0 0 0 0
Neighs:    271826 ave 271826 max 271826 min
Histogram: 1 0 0 0 0 0 0 0 0 0

Total # of neighbors = 271826
Ave neighs/atom = 33.9783
Neighbor list builds = 20000
Dangerous builds = 0
unfix		4
