LAMMPS (13 Jan 2014)
dimension       3
boundary        p p p
units           metal

atom_style	atomic
neighbor	0.3 bin
neigh_modify	every 10 delay 0 check no

# Number of steps for the equilibration steps
variable        eqsteps equal 50000

# Number of steps to run our NPH simulation
variable        simsteps equal 200000

# Our trial melting temperature
variable	T equal 1150.0
variable	T2 equal 2*${T}
variable	T2 equal 2*1150

# Some high temperature to melt the crystal
variable	Tmelt equal 2000.0

#System size
variable	nx equal 4
variable	ny equal 4
variable	nz equal 20
variable	nzhalf equal ${nz}*0.5
variable	nzhalf equal 20*0.5
variable	a equal 4.050
variable	length equal ${nz}*${a}
variable	length equal 20*${a}
variable	length equal 20*4.05

lattice		fcc ${a}
lattice		fcc 4.05
Lattice spacing in x,y,z = 4.05 4.05 4.05

region         box block 0 ${nx} 0 ${ny} 0 ${nz}
region         box block 0 4 0 ${ny} 0 ${nz}
region         box block 0 4 0 4 0 ${nz}
region         box block 0 4 0 4 0 20
create_box     1 box
Created orthogonal box = (0 0 0) to (16.2 16.2 81)
  1 by 1 by 1 MPI processor grid
create_atoms   1 box
Created 1280 atoms

mass		1 26.9815

pair_style	eam/alloy
pair_coeff	* * Al_potential.alloy Al

velocity	all create ${T2} 1337
velocity	all create 2300 1337

# Create a dump file. This can be visualized with
# e.g. OVITO (http://www.ovito.org/)
dump		id all atom 1000 atomsdump

# 1 fs timestep
timestep	0.001
thermo_style	custom step temp etotal pe press pxx pyy pzz lx ly lz

# output every 100th timestep
thermo		100

# Equilibration the whole system to the trial melting temperature
fix		1 all npt temp ${T} ${T} 1 iso 0 0 3 drag 1.0
fix		1 all npt temp 1150 ${T} 1 iso 0 0 3 drag 1.0
fix		1 all npt temp 1150 1150 1 iso 0 0 3 drag 1.0
run		${eqsteps}
run		50000
Memory usage per processor = 3.13549 Mbytes
Step Temp TotEng PotEng Press Pxx Pyy Pzz Lx Ly Lz 
       0         2300   -3968.1157   -4348.3603    15042.143    14513.757    14894.771      15717.9         16.2         16.2           81 
     100    1072.3401   -3972.2179   -4149.5012    38791.786    40122.383    39342.925     36910.05    16.236735    16.236735    81.183675 
     200    1089.3205    -3979.738   -4159.8286    23768.556    24011.723    23818.616     23475.33    16.338884    16.338884    81.694419 
     300    1026.9209   -3984.2858   -4154.0602    9108.4489     9555.978    8647.5312    9121.8373    16.459344    16.459344    82.296722 
     400    1034.7167   -3984.5218    -4155.585   -2660.2576   -2992.9541   -1837.0344   -3150.7841     16.55465     16.55465    82.773252 
     500    1010.3505   -3982.9215   -4149.9564   -8431.2042   -9471.8852   -8993.8764   -6827.8511    16.612117    16.612117    83.060586 
     600    981.19329   -3981.2653   -4143.4799   -10088.098   -10367.802   -9280.0736   -10616.417    16.636824    16.636824    83.184122 
     700    1006.8724   -3980.0547   -4146.5146   -10345.937   -11288.432   -9948.2184   -9801.1596     16.63642     16.63642    83.182102 
     800    1004.7663   -3979.1843    -4145.296   -7899.4933   -8309.7824   -8132.7373   -7255.9603    16.617245    16.617245    83.086227 
     900    1015.8288   -3978.3126   -4146.2532   -4308.7781    -4871.473   -5416.1817   -2638.6796    16.586504    16.586504     82.93252 
    1000    1018.4045   -3977.2474   -4145.6138    -643.3213   -2026.5693    568.36644   -471.76107    16.552159    16.552159    82.760795 
    1100    1068.9109   -3975.9392   -4152.6556    2140.0878    1884.9161      1616.44    2918.9074    16.521577    16.521577    82.607885 
    1200    1062.7263   -3974.5952   -4150.2891    5221.3852    4469.5745    5274.6942    5919.8868    16.500416    16.500416    82.502078 
    1300    1069.6872     -3973.43   -4150.2747    6102.8383     6337.804    4552.9164    7417.7944    16.492069    16.492069    82.460345 
    1400    1083.4234   -3972.5711   -4151.6867    5730.6336    6664.1367    5505.2158    5022.5482    16.496311    16.496311    82.481557 
    1500    1073.5197   -3971.8785   -4149.3567    4130.7617    5042.7695    2277.3792    5072.1363    16.511504    16.511504    82.557521 
    1600    1092.4821    -3971.188   -4151.8012    1307.5419    1717.7416    1676.5019    528.38198    16.533372    16.533372    82.666858 
    1700    1040.9237    -3970.351   -4142.4404   -17.626247    693.88546    -2533.173    1786.4088    16.556415    16.556415    82.782075 
    1800    1071.1411   -3969.3524   -4146.4374   -3102.2997   -3557.9633   -3429.8792   -2319.0566    16.575972    16.575972     82.87986 
    1900    1026.2595   -3968.3112   -4137.9763   -3169.3828   -1738.4353   -3712.8627   -4056.8505    16.588248    16.588248     82.94124 
    2000    1025.7719   -3967.3177   -4136.9021     -3232.93   -2951.1655   -3181.7635   -3565.8612    16.592389    16.592389    82.961947 
    2100    1101.0181   -3966.3566    -4148.381   -4635.7255   -4923.8955   -4545.1869   -4438.0941    16.588901    16.588901    82.944503 
    2200    1064.4423   -3965.4685    -4141.446   -2196.9526   -1252.3289   -2914.6987   -2423.8302    16.578629    16.578629    82.893145 
    2300    1058.6407   -3964.5516     -4139.57   -351.05119    655.06108   -323.60206   -1384.6126    16.565524    16.565524    82.827621 
    2400     1070.177   -3963.5973    -4140.523    852.27875    1657.8731    -85.55295    984.51611    16.552811    16.552811    82.764056 
    2500    1110.3111   -3962.6167   -4146.1774    1433.1559    645.67946     883.9946    2769.7937    16.543277    16.543277    82.716386 
    2600    1090.3757   -3961.6999   -4141.9648     2905.819     3971.307    1618.4987    3127.6514    16.538406    16.538406    82.692032 
    2700    1099.0629   -3960.8729   -4142.5741    2328.4117    3036.0732    2510.3875    1438.7744     16.53922     16.53922      82.6961 
    2800    1088.8622   -3960.0979   -4140.1127    2483.9987    2194.4844    1815.6281    3441.8835    16.545137    16.545137    82.725683 
    2900    1106.8751   -3959.3547   -4142.3474    537.52684     1227.832    78.001503    306.74699    16.555108    16.555108    82.775542 
    3000    1068.8221   -3958.6045   -4135.3061     768.2277    1518.4981    79.543645    706.64135     16.56602     16.56602    82.830099 
    3100    1063.8253   -3957.8475    -4133.723   -468.80527   -1850.8576   -991.93227    1436.3741    16.576196    16.576196    82.880978 
    3200    1090.4594   -3957.0366   -4137.3154   -1676.2083   -2090.8245    -2256.992   -680.80856    16.583918    16.583918    82.919592 
    3300    1090.2667   -3956.2321   -4136.4791    -2002.151   -3303.5698   -587.69133   -2115.1919    16.587634    16.587634    82.938172 
    3400      1117.41   -3955.4619   -4140.1963   -2704.1037   -3186.2593   -3054.7315   -1871.3202    16.587153    16.587153    82.935765 
    3500    1108.8822   -3954.7158   -4138.0403   -1484.2001   -1941.8876   -2203.7201    -306.9927    16.582673    16.582673    82.913365 
    3600    1098.2661   -3953.9754   -4135.5449   -473.52776    727.84406   -1991.0602   -157.36715     16.57632     16.57632    82.881601 
    3700    1088.7564   -3953.2076   -4133.2048    390.88238   -57.595707    217.39829    1012.8446    16.570081    16.570081    82.850404 
    3800    1088.8118    -3952.459   -4132.4654     1473.825    2386.7338     1994.484    40.257268    16.564796    16.564796    82.823979 
    3900    1103.1778   -3951.7718   -4134.1532    1802.4159     1176.947    755.97938    3474.3215    16.561438    16.561438    82.807188 
    4000    1143.3574   -3951.1128   -4140.1369    557.34148    1084.5236    668.76349   -81.262651    16.561345    16.561345    82.806723 
    4100    1111.7109   -3950.4839   -4134.2761     1321.925    1972.0711   -419.47697    2413.1808    16.564033    16.564033    82.820166 
    4200    1095.1719   -3949.8741    -4130.932    1417.5757    3288.2485   -221.95665    1186.4351    16.569332    16.569332    82.846658 
    4300    1099.3766   -3949.2603   -4131.0133    431.74465   -125.71948    1051.8079    369.14556    16.576119    16.576119    82.880594 
    4400    1107.6366   -3948.6412   -4131.7598   -506.70163     479.0477   -2021.5716    22.418989    16.582832    16.582832    82.914159 
    4500    1116.2694   -3948.0476   -4132.5934   -1380.7329   -927.04354   -1269.9137   -1945.2414    16.587807    16.587807    82.939035 
    4600    1114.2478   -3947.4394    -4131.651   -1411.4893   -1835.6168   -2422.1615    23.310345    16.590623    16.590623    82.953115 
    4700    1121.1785   -3946.8151   -4132.1725   -1639.3468   -2322.2259   -805.84722   -1789.9673    16.591065    16.591065    82.955325 
    4800     1119.895   -3946.1852   -4131.3304   -985.72118    -2403.434    722.49317   -1276.2227    16.589078    16.589078     82.94539 
    4900    1093.8922   -3945.5849   -4126.4312    37.132129    -762.2572    1023.9577   -150.30415     16.58529     16.58529    82.926452 
    5000    1128.0051   -3944.9742   -4131.4602   -188.04659   -554.46015    317.26423   -326.94384    16.581358    16.581358     82.90679 
    5100     1101.218    -3944.376   -4126.4334    1139.5414    1347.1002   -107.61059    2179.1345     16.57788     16.57788    82.889398 
    5200    1181.2249   -3943.7658   -4139.0503   -969.58955   -1884.8806   -713.69877   -310.18925    16.576505    16.576505    82.882525 
    5300    1096.8157   -3943.2081   -4124.5378    1618.2631    1227.5482    1843.7619    1783.4791    16.576033    16.576033    82.880164 
    5400    1143.1236   -3942.6813   -4131.6668    398.50063   -65.214636    1144.3928    116.32368    16.577605    16.577605    82.888026 
    5500    1125.1896   -3942.1829   -4128.2034    267.95068    359.06377    145.36743    299.42084    16.580465    16.580465    82.902324 
    5600    1115.0197   -3941.7005   -4126.0398    473.16856    1080.6572    703.92618   -365.07774    16.584286    16.584286    82.921429 
    5700    1154.7704   -3941.1968   -4132.1078   -953.56149   -1849.1831    -54.75958   -956.74179    16.588855    16.588855    82.944274 
    5800    1117.7773   -3940.7058    -4125.501   -229.89662   -933.46103    183.62428    60.146898    16.592641    16.592641    82.963207 
    5900    1136.5964   -3940.2475   -4128.1538   -1040.7073   -512.09515   -847.68372   -1762.3431    16.595276    16.595276    82.976378 
    6000    1116.5725   -3939.8059   -4124.4018   -742.54316   -1251.5142    639.43359   -1615.5488    16.596336    16.596336    82.981678 
    6100    1164.6212   -3939.3424   -4131.8819   -1287.5526   -1894.5303   -601.94859    -1366.179    16.596153    16.596153    82.980764 
    6200    1106.0426    -3938.941    -4121.796    116.19408    810.49944    662.91048   -1124.8277    16.594166    16.594166    82.970829 
    6300     1129.489   -3938.5439   -4125.2752   -64.565727    2914.3281   -1426.9716   -1681.0537     16.59147     16.59147    82.957349 
    6400    1134.6398   -3938.1791   -4125.7619     257.2432   -691.63842    740.54207    722.82594    16.588359    16.588359    82.941797 
    6500    1141.0798   -3937.8258   -4126.4734    591.47367   -169.81092    627.81723    1316.4147     16.58625     16.58625    82.931249 
    6600     1172.407   -3937.4725   -4131.2992   -97.091024   -222.21116    -61.03677   -8.0251417    16.585814    16.585814    82.929069 
    6700    1129.2526   -3937.1673   -4123.8596    946.58053    79.815277    1605.7808    1154.1455    16.586146    16.586146     82.93073 
    6800    1145.2737    -3936.854   -4126.1949   -195.93112    1017.4267     -837.705   -767.51501    16.588041    16.588041    82.940204 
    6900    1121.8643   -3936.5408   -4122.0116    478.80979   -708.87709    1550.4687     594.8378    16.590456    16.590456    82.952279 
    7000    1119.0875   -3936.2278   -4121.2396    568.97913    482.24998    1399.1679   -174.48048    16.593018    16.593018    82.965089 
    7100    1134.1108   -3935.9484   -4123.4438   -221.86227    860.63745   -422.35387   -1103.8704    16.595045    16.595045    82.975224 
    7200    1155.5615   -3935.6931   -4126.7349   -787.49217   -1679.9141   -97.367702   -585.19468     16.59604     16.59604    82.980202 
    7300    1154.6162    -3935.454   -4126.3394   -701.14695   -1592.1713   -1582.9194    1071.6499    16.596129    16.596129    82.980646 
    7400    1129.6494   -3935.1865   -4121.9443      143.822   -649.63715    1088.3957   -7.2925676    16.596011    16.596011    82.980057 
    7500    1162.8893   -3934.9488    -4127.202    -915.5193   -506.51019   -1963.8843   -276.16339    16.595175    16.595175    82.975874 
    7600    1190.6253   -3934.7328   -4131.5714   -1082.9005   -76.814388   -2303.0723   -868.81474    16.593633    16.593633    82.968163 
    7700    1158.7797   -3934.5428   -4126.1165   -203.31708   -900.60898    324.00182   -33.344092    16.591821    16.591821    82.959103 
    7800    1146.2815   -3934.3444   -4123.8519    250.73409    621.20788    1569.6856   -1438.6912     16.59054     16.59054      82.9527 
    7900    1123.3394   -3934.1802   -4119.8949    1388.1487    511.53265    1389.4312    2263.4821    16.589652    16.589652    82.948258 
    8000    1140.5019   -3934.0091   -4122.5611    380.15494     433.7768   -8.9064352    715.59446    16.590378    16.590378    82.951891 
    8100    1157.5018   -3933.8235    -4125.186   -233.57506   -48.722172   -1514.7174    862.71444    16.592261    16.592261    82.961305 
    8200    1145.5887   -3933.6382   -4123.0312    394.74454    667.98121   -947.79435    1464.0468    16.594719    16.594719    82.973596 
    8300    1122.7922    -3933.485   -4119.1092   -11.317414   -50.230202   -698.81121    715.08917    16.597219    16.597219    82.986094 
    8400    1136.3086    -3933.281   -4121.1397   -131.22161   -1953.7418    715.36708     844.7099    16.599729    16.599729    82.998643 
    8500    1134.7185   -3933.0603   -4120.6562   -939.72949   -2118.1614    672.72041   -1373.7475    16.601489    16.601489    83.007447 
    8600    1119.6066    -3932.883   -4117.9805    55.038381    1412.7223    575.65429   -1823.2615    16.601067    16.601067    83.005335 
    8700    1161.5967   -3932.7186    -4124.758   -760.73354   -1242.2646   -744.44383   -295.49216    16.599415    16.599415    82.997076 
    8800    1146.4386   -3932.5776   -4122.1111    84.803712   -94.052075    729.51009   -381.04688    16.596773    16.596773    82.983863 
    8900     1124.277   -3932.4318   -4118.3015    889.23002    807.57762    889.45801    970.65442    16.594477    16.594477    82.972384 
    9000    1163.6393   -3932.2596   -4124.6368   -97.048958   -444.82246   -133.95546    287.63105    16.593873    16.593873    82.969364 
    9100    1138.9148   -3932.1327   -4120.4223    927.44469    715.47846     990.1008    1076.7548     16.59378     16.59378    82.968899 
    9200    1136.3894   -3932.0115   -4119.8836    524.09851   -322.22837    1754.6652    139.85868    16.594635    16.594635    82.973174 
    9300    1161.3427   -3931.8964   -4123.8938    -273.6277   -322.69229    38.620102   -536.81091    16.596068    16.596068    82.980339 
    9400    1158.0103   -3931.8235   -4123.2701   -170.59092   -2607.1537   -214.74045    2310.1214    16.597252    16.597252     82.98626 
    9500    1158.8887   -3931.7862    -4123.378   -312.44877    116.65826   -1068.9354    14.930811    16.598113    16.598113    82.990564 
    9600    1144.3498    -3931.754   -4120.9422    404.27649    1525.2342   -393.89607    81.491348    16.598551    16.598551    82.992754 
    9700    1161.9825   -3931.6932   -4123.7965    -401.7551   -2406.7642    -504.6176    1706.1165    16.599508    16.599508    82.997542 
    9800    1139.8531   -3931.6526   -4120.0974    297.41216    -683.3526     1593.321   -17.731921    16.600031    16.600031    83.000154 
    9900    1139.9673   -3931.6216   -4120.0852   -260.04256    402.62477   -852.21863   -330.53381    16.600334    16.600334    83.001672 
   10000     1134.537   -3931.5805   -4119.1464   -40.876973    1549.0259    -630.1846   -1041.4722    16.600235    16.600235    83.001175 
   10100    1152.6884   -3931.5638   -4122.1305   -276.40768   -2393.4325     960.4678    603.74167    16.599162    16.599162     82.99581 
   10200    1078.5289   -3931.5688   -4109.8752    1384.7911   -191.43437    1271.2375    3074.5702    16.597304    16.597304    82.986522 
   10300    1157.4432   -3931.5364   -4122.8892    -246.8421    493.90524   -1193.8583   -40.573256    16.595898    16.595898    82.979491 
   10400    1149.7679   -3931.5158   -4121.5998    46.565498   -480.68466   -365.18231    985.56346    16.594381    16.594381    82.971903 
   10500    1159.5687   -3931.4713   -4123.1755   -167.84091   -459.46974   -259.34537    215.29236     16.59404     16.59404    82.970202 
   10600    1141.2372   -3931.4471   -4120.1207       398.75    241.44054    2264.6154    -1309.806    16.594154    16.594154    82.970769 
   10700    1135.4985   -3931.4243   -4119.1491     206.9581   -931.46152     2571.941   -1019.6052    16.594799    16.594799    82.973994 
   10800    1154.8894   -3931.3728   -4122.3034   -47.519543   -272.31014    2224.2535    -2094.502    16.595956    16.595956    82.979779 
   10900    1093.4678   -3931.3297   -4112.1059    1310.7458    1827.6471    1519.6361    584.95427    16.597438    16.597438     82.98719 
   11000    1131.4409   -3931.2544   -4118.3085    215.50632     701.0681   -247.43571    192.88656    16.599625    16.599625    82.998127 
   11100     1165.305   -3931.2192   -4123.8718   -621.09951   -623.01387   -749.13582   -491.14884     16.60097     16.60097    83.004848 
   11200    1164.2998    -3931.232   -4123.7183   -226.84366    -854.8156    -442.7739    617.05851    16.600922    16.600922    83.004611 
   11300    1173.2373    -3931.256     -4125.22   -684.21671    884.57276   -811.38728   -2125.8356     16.60028     16.60028    83.001399 
   11400    1125.1498   -3931.2624   -4117.2764    279.74756   -559.20387    1229.4964    168.95016    16.599449    16.599449    82.997244 
   11500    1129.5894   -3931.2302   -4117.9781    481.56479    1628.6254    682.69414   -866.62515    16.598804    16.598804    82.994021 
   11600    1140.3143   -3931.1786   -4119.6996    23.010638   -1559.5074    1941.7306   -313.19129    16.598506    16.598506     82.99253 
   11700    1149.3594   -3931.0845   -4121.1009   -64.109208   -1017.3878     1028.072   -203.01182    16.598849    16.598849    82.994245 
   11800    1136.0856     -3931.03   -4118.8519    6.1479924   -137.47278    231.47265   -75.555888    16.598787    16.598787    82.993934 
   11900    1177.1128   -3930.9725   -4125.5771   -686.46314   -1469.8983    404.45943   -993.95052    16.598918    16.598918    82.994592 
   12000    1131.5629   -3930.9189   -4117.9931    182.98893   -116.73915    532.40045    133.30549    16.599028    16.599028     82.99514 
   12100    1139.3156    -3930.864   -4119.2199    315.12865    307.47759    101.57537    536.33298    16.599116    16.599116     82.99558 
   12200    1151.5829    -3930.777   -4121.1609    69.091736   -195.20572    935.66003    -533.1791    16.599768    16.599768    82.998838 
   12300    1129.1729   -3930.6934   -4117.3724    618.72418    3290.5356    1416.9153   -2851.2784    16.600592    16.600592    83.002958 
   12400    1142.1418    -3930.624   -4119.4471   -210.44014   -785.10692   -86.884512    240.67103    16.601337    16.601337    83.006686 
   12500    1159.4765   -3930.5771    -4122.266   -161.04333   -1716.6552   -900.10689    2133.6321    16.601451    16.601451    83.007256 
   12600    1118.7593   -3930.5418   -4115.4993    402.04932    881.16093    1259.3388   -934.35177    16.601039    16.601039    83.005193 
   12700     1139.725   -3930.4958   -4118.9194    177.17494   -599.21747    554.87436    575.86792    16.600392    16.600392    83.001962 
   12800    1151.5784   -3930.4562   -4120.8394    81.043786    1211.4806   -2479.0344    1510.6851    16.599258    16.599258    82.996289 
   12900    1164.6986   -3930.4676   -4123.0199   -62.499002    541.19654    163.48053   -892.17408    16.597487    16.597487    82.987437 
   13000    1157.6975   -3930.5007   -4121.8955    502.17691    1602.0642   -546.22733    450.69389    16.596229    16.596229    82.981146 
   13100    1114.3552   -3930.5497    -4114.779    1236.1716    1681.0665    1099.7155    927.73285    16.595885    16.595885    82.979427 
   13200    1129.4297   -3930.5476   -4117.2691    780.04427     1630.036   -24.625309    734.72213    16.597472    16.597472     82.98736 
   13300    1141.9541    -3930.531   -4119.3231    299.18192    1858.5748   -555.97527   -405.05374    16.599598    16.599598    82.997988 
   13400    1160.1093   -3930.5152   -4122.3088   -396.72585    565.90257   -779.91621   -976.16392    16.601469    16.601469    83.007343 
   13500    1162.0545     -3930.53   -4122.6451   -763.26587    311.36129   -2726.7738    125.61492    16.602312    16.602312    83.011558 
   13600    1123.5899   -3930.5374   -4116.2934     430.0838    526.49782     512.7845     250.9691    16.602454    16.602454    83.012269 
   13700    1156.5314   -3930.5268   -4121.7288   -625.80119   -326.71189   -296.94943   -1253.7423    16.602255    16.602255    83.011276 
   13800    1140.2623   -3930.5079   -4119.0203    398.45903    864.89238   -539.35435    869.83907    16.601705    16.601705    83.008527 
   13900    1136.3508    -3930.475   -4118.3408    485.48156   -895.43074    548.78056    1803.0949    16.601767    16.601767    83.008836 
   14000    1146.4645   -3930.4612    -4119.999    7.4325613   -245.85204   -891.93995    1160.0897    16.601476    16.601476    83.007379 
   14100    1157.3697   -3930.4801   -4121.8207    105.93728   -306.55367   -172.07576    796.44126    16.600431    16.600431    83.002154 
   14200    1170.5314    -3930.477   -4123.9936   -937.44594   -1424.3571   -1249.1496   -138.83116    16.599808    16.599808    82.999039 
   14300     1143.226   -3930.4962   -4119.4986    176.60707    2290.7159   -1578.5629    -182.3317    16.598471    16.598471    82.992356 
   14400     1176.211   -3930.5233   -4124.9788   -658.04091   -157.76529   -1277.0687   -539.28876    16.596978    16.596978     82.98489 
   14500    1133.3388   -3930.5712    -4117.939    934.16435    457.26279    641.16079    1704.0695    16.595589    16.595589    82.977944 
   14600    1162.0131   -3930.5818   -4122.6901    137.77536    377.94784   -553.66783    589.04606    16.595647    16.595647    82.978233 
   14700    1168.3578   -3930.5984   -4123.7557   -130.48108   -536.31308   -880.30624    1025.1761    16.596521    16.596521    82.982606 
   14800    1160.8282   -3930.6215    -4122.534    7.8269399   -1166.7119     1324.892   -134.69928    16.597699    16.597699    82.988495 
   14900    1175.4245   -3930.6529   -4124.9784   -662.71532   -552.01989   -1250.3459   -185.78015    16.598995    16.598995    82.994975 
   15000    1134.0813   -3930.7054   -4118.1959     799.2439    229.04053   -463.22545    2631.9166    16.599893    16.599893    82.999465 
   15100    1166.9421   -3930.7127    -4123.636   -472.59091   -1817.1955   -1505.5018    1904.9245    16.601716    16.601716    83.008579 
   15200    1184.0916   -3930.7185    -4126.477   -979.12496   -771.76233   -1725.9092   -439.70335    16.602946    16.602946    83.014728 
   15300    1159.4676   -3930.7682   -4122.4557    -858.5738   -1587.3101   -1069.4124     81.00106    16.602886    16.602886    83.014431 
   15400    1122.1854   -3930.8062   -4116.3301    479.08045    969.90415     1111.282    -643.9448    16.602174    16.602174    83.010869 
   15500    1138.7733   -3930.8228    -4119.089   -238.11024    1254.4981   -968.41083    -1000.418    16.601206    16.601206    83.006028 
   15600    1125.9421    -3930.842   -4116.9869    462.79782    77.375742    910.78791    400.22981    16.599424    16.599424    82.997118 
   15700    1152.6959   -3930.8538   -4121.4217    428.28566    1823.6105    -402.7739   -135.97959     16.59771     16.59771    82.988548 
   15800    1181.7477   -3930.8718   -4126.2427   -415.82151   -961.49676   -1501.2847    1215.3169     16.59654     16.59654    82.982701 
   15900    1164.5223   -3930.9002   -4123.4233   -126.27538   -82.100738   -182.04174   -114.68366    16.595891    16.595891    82.979457 
   16000    1178.7527   -3930.9484   -4125.8242   -399.09521   -1080.1367   -1682.9215    1565.7726    16.595647    16.595647    82.978235 
   16100    1158.7275   -3931.0225   -4122.5876   -319.72183    260.37821   -2605.9637      1386.42    16.595676    16.595676    82.978382 
   16200      1167.19    -3931.051   -4124.0152   -30.363193   -1727.8303    712.95152    923.78921    16.596595    16.596595    82.982974 
   16300    1178.0461   -3931.0974   -4125.8564   -757.12513   -442.90731   -1186.2141   -642.25401    16.597685    16.597685    82.988427 
   16400    1163.1853   -3931.1372   -4123.4393   -568.24791    478.09082   -1670.2385   -512.59609    16.598743    16.598743    82.993716 
   16500    1144.0104   -3931.1581   -4120.2901    196.34712    269.18684   -285.31898    605.17351    16.599431    16.599431    82.997156 
   16600    1125.8218   -3931.1831   -4117.3082    412.65118   -347.48964    89.933719    1495.5095    16.599908    16.599908    82.999539 
   16700    1142.1305   -3931.2096   -4120.0309   -5.4710519   -1419.3266    1452.2246   -49.311186    16.600192    16.600192    83.000958 
   16800    1156.6319   -3931.2221   -4122.4407   -445.79892   -824.20648   -575.59229    62.402027    16.600109    16.600109    83.000547 
   16900    1125.8731   -3931.2363   -4117.3698    204.35358    1.1849029    781.67431   -169.79849     16.59964     16.59964    82.998202 
   17000    1144.1418   -3931.2244   -4120.3782   -77.941586   -241.06374   -939.22766    946.46664    16.599106    16.599106    82.995529 
   17100    1161.6534   -3931.2176   -4123.2665   -543.79703   -207.32057    61.261897   -1485.3324    16.597967    16.597967    82.989836 
   17200    1161.5027   -3931.2083   -4123.2322    21.595049    122.08678   -99.517765     42.21613     16.59673     16.59673    82.983648 
   17300     1169.871   -3931.1878   -4124.5952   -236.46195   -680.19104   -1447.1028     1417.908    16.596334    16.596334    82.981671 
   17400    1161.6701   -3931.1792   -4123.2308    35.899321   -321.77787   -1914.9184    2344.3943    16.596338    16.596338    82.981692 
   17500    1162.6631   -3931.1714   -4123.3872    42.683334    415.20459    804.98116   -1092.1358    16.596839    16.596839    82.984196 
   17600    1164.5278   -3931.1761   -4123.7001   -231.26483   -631.48217   -337.83358    275.52127    16.597507    16.597507    82.987533 
   17700    1137.0404   -3931.1951   -4119.1749    920.34867     205.9872    981.85034    1573.2085    16.598214    16.598214    82.991071 
   17800     1133.982    -3931.224   -4118.6981    278.59972    2807.8884    -729.8672    -1242.222     16.59918     16.59918      82.9959 
   17900    1125.3247   -3931.2353   -4117.2782    562.18565    389.18809    247.62848    1049.7404    16.600275    16.600275    83.001377 
   18000    1145.0089   -3931.2205   -4120.5176   -448.48475    508.77989   -705.49882   -1148.7353     16.60145     16.60145    83.007252 
   18100    1148.1573   -3931.1906   -4121.0083   -371.22029   -2603.4213    1512.4458   -22.685287    16.602083    16.602083    83.010417 
   18200    1130.8525   -3931.1708   -4118.1275    73.820679   -932.28793   -94.433406    1248.1834    16.601812    16.601812    83.009062 
   18300    1156.7754    -3931.121   -4122.3634   -643.54337   -2124.9195   -1210.4585    1404.7479    16.601256    16.601256    83.006278 
   18400    1118.3959   -3931.0443   -4115.9416    802.91584    723.08214   -27.655513    1713.3209    16.600463    16.600463    83.002317 
   18500    1150.1772   -3930.9249   -4121.0764    -465.4444   -39.667736    572.30748    -1928.973      16.6004      16.6004    83.001998 
   18600    1143.5613   -3930.7784   -4119.8362    175.93803    237.78826   -1144.1446    1434.1704    16.600755    16.600755    83.003777 
   18700    1121.1475   -3930.6117    -4115.964    927.86584    995.03205    53.230342    1735.3351    16.601313    16.601313    83.006567 
   18800    1162.5754   -3930.3959   -4122.5972   -540.64689   -2027.1427   -265.61919    670.82126    16.602864    16.602864     83.01432 
   18900      1142.37   -3930.1642    -4119.025    3.1252509   -918.20855    462.01739    465.56691    16.604256    16.604256     83.02128 
   19000    1167.5977   -3929.9177   -4122.9493   -801.23841   -548.27313   -1493.6555   -361.78658    16.605725    16.605725    83.028623 
   19100    1141.9645   -3929.7034   -4118.4972   -240.20376   -1192.0155    424.64926    46.754997    16.606568    16.606568     83.03284 
   19200    1177.0261   -3929.4769   -4124.0673   -828.31605   -1133.4413   -1126.2368   -225.27002    16.607241    16.607241    83.036203 
   19300    1149.0394   -3929.2774   -4119.2408   -81.003822   -528.92996    17.674629    268.24387    16.607389    16.607389    83.036945 
   19400     1136.217   -3929.0892   -4116.9328   -91.081199    -1355.758    276.21864    806.29578    16.607086    16.607086    83.035429 
   19500    1096.2375   -3928.9154   -4110.1495    963.17244    841.61421    441.23286    1606.6702    16.606244    16.606244    83.031218 
   19600    1177.3814   -3928.7282   -4123.3772   -757.32695   -1458.3215   -999.55364    185.89425    16.605288    16.605288    83.026439 
   19700    1174.0062   -3928.5889     -4122.68   -664.85141   -733.64166   -2419.3432    1158.4307    16.603664    16.603664    83.018321 
   19800     1193.266    -3928.502   -4125.7772   -943.83223   -640.12336   -766.82224   -1424.5511    16.601496    16.601496    83.007478 
   19900    1168.1035   -3928.4512   -4121.5665    368.41127    199.61034   -396.87224    1302.4957    16.599626    16.599626     82.99813 
   20000    1133.7857   -3928.4024    -4115.844    1365.7989    2235.9887    420.10453    1441.3035    16.599256    16.599256    82.996278 
   20100    1125.5661   -3928.3698   -4114.4525    891.70579    764.78464    2319.8119   -409.47921    16.600278    16.600278    83.001388 
   20200    1121.9176   -3928.3557   -4113.8353    961.31118    1322.2234    217.92771    1343.7824    16.601639    16.601639    83.008194 
   20300    1183.6245   -3928.3439   -4124.0251   -610.53631     361.6332   -647.15989   -1546.0822    16.603407    16.603407    83.017036 
   20400    1136.4482   -3928.3335   -4116.2154     111.3341    32.075252    494.08817   -192.16113    16.605039    16.605039    83.025197 
   20500    1185.1096   -3928.3488   -4124.2755   -1395.1048   -1780.8921   -1143.8552    -1260.567    16.605877    16.605877    83.029387 
   20600    1157.7649    -3928.384     -4119.79   -655.01659    1148.6548   -1018.2239   -2095.4807     16.60566     16.60566    83.028299 
   20700    1138.1709   -3928.4081   -4116.5748    387.99503    197.51018   -500.00419    1466.4791    16.604838    16.604838    83.024192 
   20800     1195.786   -3928.4676   -4126.1594   -988.02356   -762.65846   -445.49582   -1755.9164    16.603492    16.603492    83.017462 
   20900    1162.1255    -3928.544   -4120.6709    -259.4158    130.74386   -2178.1974    1269.2062     16.60177     16.60177    83.008849 
   21000    1163.6704   -3928.6361   -4121.0184   -90.590238    304.50034   -1027.6492    451.37817    16.599936    16.599936    82.999682 
   21100    1122.6213   -3928.7527   -4114.3486    1229.8757    1764.0256    2499.8947   -574.29329    16.598032    16.598032    82.990158 
   21200    1162.0974   -3928.8636   -4120.9859    398.72022   -606.47501    990.26683    812.36883    16.596953    16.596953    82.984766 
   21300    1148.2355   -3929.0137   -4118.8442    503.62837    2109.2204   -434.43639    -163.8989    16.596347    16.596347    82.981736 
   21400    1176.3164   -3929.1549   -4123.6279   -93.026515    -1530.436    2001.7057   -750.34923     16.59721     16.59721    82.986052 
   21500    1142.5583   -3929.3138   -4118.2058    372.36506     320.5585    235.09686    561.43981    16.598928    16.598928     82.99464 
   21600    1136.0758   -3929.4689   -4117.2891   -160.74262    723.28944   -1391.9917    186.47436    16.600981    16.600981    83.004905 
   21700    1158.4687   -3929.6202   -4121.1425   -142.68029   -1036.7666    695.79637   -87.070659    16.602629    16.602629    83.013144 
   21800    1157.0773   -3929.7325   -4121.0248   -491.12266    512.17203   -1605.7767   -379.76328    16.604436    16.604436    83.022182 
   21900    1145.4282   -3929.8019   -4119.1684   -527.96176   -57.959236   -1400.7584   -125.16761     16.60574     16.60574    83.028702 
   22000     1134.585    -3929.873   -4117.4468    -105.0453   -241.28947    1493.2071   -1567.0536    16.605606    16.605606    83.028029 
   22100    1110.9252   -3929.9208   -4113.5831    223.73675   -1377.2695    2192.1748   -143.69505    16.604673    16.604673    83.023363 
   22200    1179.3324   -3929.9227   -4124.8943    -1114.116    391.58596   -2176.5087   -1557.4253    16.603411    16.603411    83.017055 
   22300     1167.447   -3929.9346   -4122.9413   -463.25183    -218.3791   -2307.5289    1136.1525    16.601545    16.601545    83.007725 
   22400    1159.4595   -3930.0095   -4121.6957    297.89886    -1292.096    905.84924    1279.9433    16.598935    16.598935    82.994676 
   22500     1153.219   -3930.1032   -4120.7577     314.6417   -908.90609    222.98699    1629.8442    16.596599    16.596599    82.982996 
   22600    1168.2817   -3930.1818   -4123.3265   -18.930099   -551.02253   -950.22284    1444.4551    16.595333    16.595333    82.976664 
   22700    1130.1384   -3930.2633    -4117.102    938.40253    2810.7906   -1270.3636    1274.7806    16.594915    16.594915    82.974576 
   22800    1150.1297   -3930.3363     -4120.48    667.95662   -695.47978    1101.8626     1597.487    16.595523    16.595523    82.977616 
   22900    1142.7914   -3930.4218   -4119.3523    669.86513    1941.6667    1097.5119   -1029.5831    16.596843    16.596843    82.984217 
   23000    1149.8615   -3930.5077   -4120.6071    -144.3451   -863.14459    2542.8444   -2112.7351    16.598593    16.598593    82.992966 
   23100    1172.7915   -3930.6068   -4124.4971   -837.91018   -1994.0038   -1321.0318    801.30505     16.59983     16.59983    82.999151 
   23200     1158.182   -3930.6964   -4122.1714   -329.64585   -95.064257   -90.269659   -803.60362    16.600761    16.600761    83.003805 
   23300    1179.1737   -3930.7672   -4125.7125   -1053.7247   -2195.6569   -2115.8101     1150.293    16.601502    16.601502     83.00751 
   23400    1179.9473   -3930.8373   -4125.9106     -708.772    346.45553     -2177.51   -295.26149    16.601484    16.601484    83.007422 
   23500    1142.1476    -3930.912   -4119.7361    162.60255   -1568.8454     1311.127    745.52598    16.600757    16.600757    83.003787 
   23600    1143.6688   -3930.9861   -4120.0617   -215.62509   -1049.4129    608.37273   -205.83514    16.599269    16.599269    82.996344 
   23700    1153.3868   -3931.0369   -4121.7191   -90.956906   -1273.0522    1485.1154   -484.93391     16.59749     16.59749    82.987449 
   23800    1164.9029   -3931.0751   -4123.6612   -200.34499   -166.16885   -1679.0948    1244.2287    16.596035    16.596035    82.980175 
   23900    1166.5607   -3931.1091   -4123.9692    87.608021   -727.60567   -137.67471    1128.1044    16.595074    16.595074     82.97537 
   24000    1142.4773   -3931.1441   -4120.0227    668.27655   -229.56156   -28.176259    2262.5675    16.594665    16.594665    82.973323 
   24100    1122.3722   -3931.2174   -4116.7721     1454.356    1828.5872    865.60775     1668.873    16.594516    16.594516    82.972579 
   24200    1179.2867   -3931.2911   -4126.2551   -448.53019   -474.74082   -937.63303    66.783278    16.594926    16.594926     82.97463 
   24300    1115.8977   -3931.3802   -4115.8645    720.93313    495.31487   -346.59538    2014.0799     16.59539     16.59539     82.97695 
   24400    1149.3348   -3931.4359   -4121.4482    397.63952    2448.2825   -334.64768   -920.71628    16.596562    16.596562    82.982812 
   24500    1137.6297   -3931.4877   -4119.5649    541.02265    1357.8921   -1743.4358    2008.6117     16.59804     16.59804      82.9902 
   24600    1148.5423   -3931.5111   -4121.3924    -155.2388    1656.9561    -955.5228   -1167.1497    16.599831    16.599831    82.999154 
   24700    1151.8475   -3931.5581   -4121.9858   -156.00825    -130.4028   -1648.9479    1311.3259    16.600957    16.600957    83.004784 
   24800    1113.5964   -3931.6174   -4115.7213    184.13284    1702.7573    -954.6448     -195.714    16.601119    16.601119    83.005594 
   24900    1145.7334   -3931.6044   -4121.0213    47.350545    2152.3722    42.112898   -2052.4335    16.601419    16.601419    83.007093 
   25000    1140.3358   -3931.5678   -4120.0924   -598.69284   -861.96046    1024.1622   -1958.2803    16.601595    16.601595    83.007975 
   25100    1144.1317   -3931.5247   -4120.6768   -315.69379     928.7365   -1092.6371   -783.18077    16.600714    16.600714    83.003569 
   25200    1155.3348   -3931.4808    -4122.485   -196.85411   -122.89496   -1048.3399    580.67249    16.598992    16.598992    82.994961 
   25300    1122.0936   -3931.4753    -4116.984    966.81953    2978.3597   -66.177584   -11.723538    16.596335    16.596335    82.981676 
   25400    1159.8098   -3931.4477   -4123.1918    203.22556    2188.8634   -1013.2173   -565.96945    16.594639    16.594639    82.973197 
   25500    1167.0704   -3931.4088   -4124.3532    407.91337   -506.85097    1236.2243    494.36681    16.594177    16.594177    82.970884 
   25600    1147.9414   -3931.3893   -4121.1713    709.33537    1610.8933   -415.23206     932.3449    16.594835    16.594835    82.974176 
   25700    1135.5891   -3931.3922    -4119.132    343.31685   -1113.6169    1443.5883    699.97918    16.596169    16.596169    82.980846 
   25800    1172.8715   -3931.4059   -4125.3093   -638.31343   -1476.2216   -518.16497    79.446249    16.597674    16.597674    82.988369 
   25900    1162.5902   -3931.4495   -4123.6532   -648.94873    555.10775   -728.23436   -1773.7196    16.598846    16.598846     82.99423 
   26000    1163.1791   -3931.5067   -4123.8078   -656.27553   -78.251414   -573.42176   -1317.1534    16.599528    16.599528    82.997641 
   26100    1175.0681   -3931.5347   -4125.8013   -1093.4138   -925.66327   -513.39279   -1841.1855    16.600116    16.600116    83.000579 
   26200    1138.9945   -3931.5771   -4119.8799   -298.13636   -341.67814   -945.08897    392.35804    16.599736    16.599736    82.998682 
   26300     1116.892   -3931.5924   -4116.2411    850.54864    1009.5169    541.18796    1000.9411    16.599023    16.599023    82.995116 
   26400    1162.8522   -3931.5928   -4123.8399    82.127369   -317.03277    346.34553    217.06935    16.598437    16.598437    82.992187 
   26500    1151.0972    -3931.554   -4121.8577   -10.291312   -397.91324    124.54153    242.49777     16.59892     16.59892    82.994602 
   26600    1138.0168   -3931.5458    -4119.687    100.93575    233.12808    386.24415   -316.56499    16.599144    16.599144    82.995719 
   26700    1153.8813   -3931.5456   -4122.3095   -143.11781    423.00278    1025.6262   -1877.9824    16.599021    16.599021    82.995107 
   26800    1135.6844   -3931.5416   -4119.2971    296.57835    1159.8195   -140.12297   -129.96148    16.598695    16.598695    82.993477 
   26900    1141.6582   -3931.5349   -4120.2781    460.93731    2675.2182   -1388.5416    96.135375    16.598346    16.598346    82.991731 
   27000    1153.9497   -3931.5086   -4122.2838    -88.35039    -1201.891    1049.6271   -112.78723      16.5984      16.5984    82.992001 
   27100    1186.5198   -3931.4774   -4127.6372   -1131.9411   -352.46018    -656.5972   -2386.7659    16.598394    16.598394     82.99197 
   27200    1100.3068   -3931.4548   -4113.3616    1239.9657    1012.0942    3204.0866   -496.28367    16.598078    16.598078    82.990389 
   27300    1146.6357    -3931.425   -4120.9911   -288.15621    559.66503   -626.73642   -797.39725    16.598225    16.598225    82.991124 
   27400    1162.8925   -3931.3896   -4123.6433   -271.52753   -359.17028   -608.95195    153.53964    16.598259    16.598259    82.991297 
   27500    1186.3725   -3931.3602   -4127.4957    -848.8826   -349.59915   -1864.5734   -332.47529    16.598057    16.598057    82.990284 
   27600    1131.7655   -3931.3719   -4118.4796    605.00782    974.07863   -197.45799    1038.4028    16.597285    16.597285    82.986424 
   27700    1136.0599   -3931.3603    -4119.178    562.22865   -242.19426    800.84155    1128.0387    16.596976    16.596976    82.984881 
   27800    1164.5217   -3931.3601   -4123.8832   -396.08828    278.30596   -408.26372   -1058.3071    16.596779    16.596779    82.983896 
   27900    1141.0681     -3931.39   -4120.0356    226.67057   -165.99392    1088.1025   -242.09683    16.596167    16.596167    82.980835 
   28000    1154.9518    -3931.407    -4122.348    476.02679    1231.1629     644.6223   -447.70481    16.596369    16.596369    82.981844 
   28100    1125.3806   -3931.4386   -4117.4907    874.73736    1849.6429   -1109.4992    1884.0684    16.597117    16.597117    82.985583 
   28200    1148.5443   -3931.4205   -4121.3022   -485.05848   -2219.9132   -21.555199    786.29297    16.599062    16.599062    82.995308 
   28300    1133.8134   -3931.3742   -4118.8204    222.05084   -265.47326    1431.3889   -499.76315    16.600678    16.600678     83.00339 
   28400    1157.1564   -3931.3145   -4122.6199   -664.64243   -3099.7352    116.00413    989.80378    16.601802    16.601802    83.009011 
   28500    1090.9352   -3931.2449   -4111.6024    680.80927    69.288924    1789.4102     183.7287    16.602015    16.602015    83.010073 
   28600    1188.4773   -3931.1217   -4127.6052   -1116.6644   -84.349633   -1038.4285    -2227.215    16.601906    16.601906    83.009531 
   28700    1172.9149   -3931.0514   -4124.9621    -908.1467   -1364.4402   -205.16041   -1154.8395    16.600467    16.600467    83.002336 
   28800    1107.6107    -3931.009   -4114.1233    1441.2697    1416.1757    307.93776    2599.6958    16.598156    16.598156     82.99078 
   28900    1169.3971   -3930.9532   -4124.2823   -119.43526   -2378.4511     753.2627    1266.8826     16.59657     16.59657    82.982851 
   29000    1143.2151   -3930.9162   -4119.9168    844.24177   -1441.0664    2823.3631    1150.4286    16.595509    16.595509    82.977546 
   29100    1176.6099   -3930.8691   -4125.3906   -259.45333   -519.71939   -416.58209     157.9415    16.595843    16.595843    82.979214 
   29200    1145.8725   -3930.8482   -4120.2881    457.02599   -998.84608    502.01312    1867.9109     16.59669     16.59669    82.983452 
   29300    1156.4474   -3930.8186   -4122.0068   -15.048474    1134.0241   -1291.8908    112.72133    16.598204    16.598204    82.991019 
   29400    1127.1801   -3930.7943   -4117.1439     280.9147   -1415.8804    807.26652     1451.358    16.599697    16.599697    82.998485 
   29500    1184.9096   -3930.7509   -4126.6446   -1187.8727   -741.50859   -2044.0007    -778.1089    16.600959    16.600959    83.004794 
   29600     1120.767   -3930.7291   -4116.0185    652.95709    1977.3081    960.13865   -978.57548    16.601263    16.601263    83.006314 
   29700    1165.8678   -3930.6882   -4123.4338   -370.54327   -1276.7891    697.69029     -532.531    16.601526    16.601526    83.007631 
   29800    1140.6303   -3930.6835   -4119.2568    101.90628   -74.015265    686.19417   -306.46006    16.600894    16.600894    83.004472 
   29900    1140.7917   -3930.6965   -4119.2964    375.05717   -640.67422    1266.8457    498.99999    16.599799    16.599799    82.998996 
   30000    1143.0881   -3930.6959   -4119.6755    347.76214    2240.5402    457.63599   -1654.8898    16.598865    16.598865    82.994323 
   30100    1121.3288   -3930.6788    -4116.061    687.99874    915.54296    1007.5125    140.94074    16.598463    16.598463    82.992314 
   30200    1181.8937   -3930.6263   -4126.0214   -1013.0696    353.79394   -996.00777   -2396.9949    16.599054    16.599054    82.995268 
   30300    1154.5115   -3930.6106   -4121.4788    15.792281   -1311.2774    654.00674    704.64749    16.598984    16.598984     82.99492 
   30400    1136.1031   -3930.6305   -4118.4553    630.09166     1378.984    1213.9523   -702.66136     16.59829     16.59829    82.991449 
   30500    1162.8133   -3930.6494     -4122.89   -86.936307    431.28696    70.423761   -762.51964    16.597975    16.597975    82.989875 
   30600    1157.2467   -3930.6682   -4121.9885    -377.3118   -611.01629    44.834584    -565.7537    16.598069    16.598069    82.990343 
   30700     1157.953   -3930.6754   -4122.1125   -339.63262   -1880.8043   -183.54011    1045.4465    16.598298    16.598298    82.991489 
   30800    1124.9183   -3930.6937   -4116.6694     829.2787   -218.21806    1554.5176    1151.5366    16.598082    16.598082    82.990409 
   30900    1191.3889   -3930.6912   -4127.6561   -919.39979   -1544.4676    -954.9667   -258.76509    16.598208    16.598208     82.99104 
   31000    1165.4262   -3930.7065   -4123.3791   -364.58383    417.78031   -1940.0875    428.55568    16.598303    16.598303    82.991515 
   31100    1145.5164   -3930.7298   -4120.1109    158.24346    2519.9967   -1585.3829   -459.88342    16.598598    16.598598    82.992991 
   31200    1153.9977   -3930.7271   -4121.5103     179.4162    409.47581   -133.39677    262.16956    16.599308    16.599308    82.996542 
   31300    1143.4917   -3930.7481   -4119.7944    20.276645    987.96465   -1581.3237    654.18899    16.599722    16.599722    82.998612 
   31400    1153.3261   -3930.7566   -4121.4287    -323.8822    263.59601   -2100.1692    864.92657    16.599833    16.599833    82.999165 
   31500    1139.4071   -3930.7248   -4119.0959    260.49631    1009.0321   -1552.2693    1324.7262    16.600129    16.600129    83.000643 
   31600     1175.381   -3930.6534   -4124.9717    -746.3754    147.43085   -2748.9331    362.37607     16.60081     16.60081    83.004052 
   31700    1150.1723   -3930.6115   -4120.7623   -34.588458    984.05729   -494.94997   -592.87269    16.600536    16.600536    83.002681 
   31800    1133.4042   -3930.5549   -4117.9335    452.12377    27.422334    764.48337    564.46559    16.600292    16.600292     83.00146 
   31900    1172.3274   -3930.4996   -4124.3131   -747.47574    1859.5528   -2895.7264   -1206.2536    16.600015    16.600015    83.000077 
   32000    1148.7711   -3930.4508   -4120.3699    576.43084    1312.7856    118.87056    297.63639    16.599492    16.599492    82.997459 
   32100    1146.5074   -3930.3958   -4119.9407    34.089322    983.99843   -327.24095   -554.48951     16.59993     16.59993    82.999651 
   32200     1150.108    -3930.376   -4120.5161   -151.01412   -418.74399    535.88708   -570.18545    16.599985    16.599985    82.999926 
   32300    1126.3462   -3930.3725   -4116.5842    785.33834    829.75283    2052.7475   -526.48529    16.599784    16.599784    82.998919 
   32400    1183.4132   -3930.3581   -4126.0044   -980.12876   -349.17134   -1825.7169   -765.49807     16.59979     16.59979    82.998952 
   32500    1160.8357   -3930.3474   -4122.2611   -83.588164   -919.65036    780.11382   -111.22795    16.599372    16.599372    82.996861 
   32600    1145.1448   -3930.3365   -4119.6561    323.51147    548.52561   -772.56983    1194.5786    16.599188    16.599188    82.995941 
   32700    1126.8038    -3930.326   -4116.6134    426.27446   -382.55549    1810.3937   -149.01483    16.599327    16.599327    82.996633 
   32800    1107.0194   -3930.2925   -4113.3091    911.10102    882.97649    198.55318    1651.7734    16.599638    16.599638    82.998189 
   32900    1177.8564    -3930.199   -4124.9266   -1044.7454   -385.19495   -1401.3754   -1347.6659    16.600934    16.600934    83.004668 
   33000    1161.5406   -3930.1267   -4122.1569   -756.82426   -305.28289   -833.72514   -1131.4648    16.601458    16.601458    83.007289 
   33100     1137.062   -3930.0809   -4118.0642    343.48553   -141.75799   -650.13637     1822.351    16.600993    16.600993    83.004967 
   33200    1171.8571   -3930.0656   -4123.8014   -856.25277    317.44609   -2250.6901   -635.51429    16.599937    16.599937    82.999687 
   33300    1166.5788   -3930.0368      -4122.9   -230.85225    427.43094   -988.95625   -131.03144    16.598807    16.598807    82.994036 
   33400    1128.3838    -3930.017   -4116.5656    705.19739   -359.98228    1391.6771    1083.8973     16.59802     16.59802    82.990102 
   33500    1157.7851   -3930.0067    -4121.416    327.88659    789.64549    -295.7234    489.73769    16.597932    16.597932     82.98966 
   33600    1163.4966    -3930.014   -4122.3676    97.735914   -255.44801    707.36941   -158.71366    16.598428    16.598428    82.992139 
   33700    1138.7725   -3930.0526   -4118.3187    549.44798    677.10073   -511.78938    1483.0326    16.599322    16.599322     82.99661 
   33800     1142.413   -3930.1005   -4118.9684     176.7076    575.43725    787.67061   -832.98506     16.60054     16.60054    83.002698 
   33900    1164.9381   -3930.1262   -4122.7181   -413.25278   -507.59632    86.184157   -818.34617    16.601977    16.601977    83.009886 
   34000    1149.3237   -3930.1815    -4120.192   -753.30706   -3722.5702    1201.7056     260.9434    16.602704    16.602704    83.013522 
   34100    1136.9962   -3930.2394   -4118.2119   -2.0465145   -1022.1415    425.19702    590.80496    16.602528    16.602528    83.012642 
   34200    1138.0111   -3930.2781   -4118.4184    295.57356    885.70144    246.30955    -245.2903     16.60186     16.60186      83.0093 
   34300    1163.9739   -3930.3011   -4122.7336   -411.10174    21.750302   -2408.7702    1153.7147    16.601274    16.601274    83.006369 
   34400    1100.4932   -3930.3411   -4112.2788     1282.893    1919.1711   -119.85418    2049.3619    16.600234    16.600234    83.001169 
   34500    1168.1049   -3930.3392   -4123.4546    -685.8313    926.80916   -1791.8631     -1192.44     16.59993     16.59993     82.99965 
   34600    1122.3185   -3930.3278   -4115.8737    1006.1586    1633.7352   -458.33275    1843.0732    16.599787    16.599787    82.998936 
   34700     1156.927   -3930.3002   -4121.5676    42.491017   -813.16356    857.62206    83.014553    16.600398    16.600398    83.001992 
   34800    1120.8336   -3930.2864   -4115.5868    659.20176    1198.7666    520.60305    258.23566    16.601057    16.601057    83.005287 
   34900    1160.9714   -3930.2423   -4122.1784   -100.70594    94.224361   -1199.3751     803.0329    16.602172    16.602172    83.010858 
   35000    1152.7567   -3930.1876   -4120.7656   -293.16529   -514.77861   -1564.1418    1199.4245     16.60336     16.60336    83.016799 
   35100    1143.5787   -3930.1624   -4119.2231     -191.341   -1446.0931   -73.508137    945.57822    16.603711    16.603711    83.018556 
   35200    1162.0711   -3930.1503   -4122.2682   -403.88029   -590.43823   -237.26258   -383.94007    16.603559    16.603559    83.017796 
   35300    1161.2426   -3930.1494   -4122.1303    -163.8651    1550.9674    -1838.861   -203.70171     16.60325     16.60325    83.016251 
   35400    1142.6457   -3930.1759   -4119.0824   -196.69124   -899.16445    409.69886   -100.60814    16.602566    16.602566    83.012831 
   35500    1134.7761   -3930.1749   -4117.7803    104.53671   -307.99965    1773.3471   -1151.7373    16.601638    16.601638    83.008191 
   35600    1158.7713   -3930.1512   -4121.7236   -395.77727   -97.935048   -1129.0391    39.642325    16.600586    16.600586    83.002932 
   35700    1130.3394   -3930.1389   -4117.0108    581.25194    492.51971     1294.898   -43.661935    16.599052    16.599052    82.995258 
   35800    1167.3511   -3930.1374   -4123.1283   -69.830692    859.32332    243.28723   -1312.1026    16.597667    16.597667    82.988337 
   35900    1144.2575   -3930.1489   -4119.3218    249.70936    969.84247   -288.71192    67.997541    16.596648    16.596648    82.983238 
   36000    1102.4937   -3930.1594   -4112.4277    1657.8991    3290.2914    368.09218    1315.3137    16.596004    16.596004    82.980022 
   36100    1146.2747   -3930.1535   -4119.6599    449.76547    1063.8679    810.73634   -525.30787    16.596552    16.596552    82.982762 
   36200    1147.0598   -3930.1868    -4119.823    516.34686     829.4155    1768.9832   -1049.3581    16.597421    16.597421    82.987103 
   36300    1176.7848   -3930.1979   -4124.7484   -746.87594   -1971.5521   -648.48811    379.41242    16.599013    16.599013    82.995064 
   36400    1167.8059   -3930.2479   -4123.3139   -459.69162   -132.59088   -2022.1371    775.65309    16.600076    16.600076     83.00038 
   36500    1168.2467   -3930.3213   -4123.4602   -534.58922    -445.1881   -1308.1576    149.57805    16.600818    16.600818    83.004091 
   36600    1145.8121   -3930.3869   -4119.8168   -215.89836   -111.16945   -272.14767   -264.37795    16.601348    16.601348    83.006741 
   36700    1159.1208   -3930.4643   -4122.0945   -137.29583    557.90463   -747.26347   -222.52865    16.601127    16.601127    83.005635 
   36800    1120.9179   -3930.5722   -4115.8866    808.22057   -740.85712    1558.8811    1606.6377    16.600264    16.600264     83.00132 
   36900    1142.4368   -3930.6054   -4119.4773    173.59105   -843.94773   -274.09218     1638.813    16.600338    16.600338    83.001692 
   37000    1157.3065    -3930.627   -4121.9572   -284.03796   -226.13517   -1555.3156    929.33686    16.600639    16.600639    83.003195 
   37100    1162.5026   -3930.6584   -4122.8476   -297.37044   -951.86915   -194.29462    254.05243    16.600596    16.600596    83.002978 
   37200    1144.3555   -3930.7361   -4119.9252    274.15017    848.70548    32.207959   -58.462923    16.599801    16.599801    82.999005 
   37300    1185.4954   -3930.7877   -4126.7782   -586.44551   -898.60871   -772.59059   -88.137231    16.599436    16.599436    82.997181 
   37400    1133.6355   -3930.8709   -4118.2878    439.01636   -1061.6639     888.4789    1490.2341    16.598737    16.598737    82.993683 
   37500    1148.2411   -3930.9352   -4120.7667    -57.18628   -434.10188   -582.80151    845.34455    16.598312    16.598312    82.991558 
   37600    1158.5861   -3930.9977   -4122.5395    95.316584   -347.04265    1360.1589   -727.16651    16.598008    16.598008    82.990042 
   37700     1153.015   -3931.0742   -4121.6949   -114.09285   -14.836104   -408.47621    81.033777    16.597975    16.597975    82.989875 
   37800    1155.6924   -3931.1407   -4122.2041   -62.740922   -1758.0427   -390.38543    1960.2054    16.598072    16.598072    82.990358 
   37900    1174.2363   -3931.1946   -4125.3237   -590.51956   -1805.6372   -905.63713    939.71562    16.598439    16.598439    82.992197 
   38000    1132.8634   -3931.2275   -4118.5167    565.89381    40.541951   -602.77223    2259.9117    16.599032    16.599032    82.995161 
   38100     1199.678   -3931.2636   -4129.5989    -1400.537   -2842.8204   -1929.0902    570.29971     16.59976     16.59976    82.998799 
   38200    1136.7813   -3931.3279   -4119.2648     168.8455    519.53446    25.768977   -38.766948    16.599508    16.599508    82.997538 
   38300    1128.7665   -3931.3838   -4117.9957    354.36837    297.68002   -1387.4781    2152.9032    16.598772    16.598772    82.993858 
   38400    1107.0973   -3931.3974   -4114.4269    1273.0373    1310.6231    1270.2218    1238.2669    16.598179    16.598179    82.990895 
   38500      1103.73   -3931.3815   -4113.8543    1214.9387   -87.689693    2501.2967    1231.2092    16.598022    16.598022    82.990109 
   38600    1173.7323   -3931.3619   -4125.4077   -496.19229   -1598.8509     325.7158   -215.44178     16.59797     16.59797    82.989849 
   38700    1160.0323   -3931.3929   -4123.1738   -205.19953   -75.823261   -2707.7363    2167.9609    16.597351    16.597351    82.986754 
   38800    1132.6463   -3931.4109   -4118.6642    571.91962   -598.56301    392.94616    1921.3757    16.597426    16.597426     82.98713 
   38900    1118.9887   -3931.4364   -4116.4318    472.33551    66.719242    566.95487     783.3324    16.597647    16.597647    82.988233 
   39000    1153.7474   -3931.4356   -4122.1774   -35.096507   -410.79713    597.28931    -291.7817    16.597992    16.597992     82.98996 
   39100    1167.4773   -3931.4416   -4124.4533   -184.66498   -659.65388   -699.05132    804.71025    16.598054    16.598054    82.990271 
   39200    1166.2029   -3931.4824   -4124.2834   -361.64173   -257.60746   -1311.2684    483.95067      16.5979      16.5979    82.989501 
   39300    1130.4863   -3931.5329   -4118.4291    491.56988    1737.9938    488.79686     -752.081    16.597796    16.597796    82.988981 
   39400    1153.9875   -3931.5525    -4122.334    380.24102    15.541411    190.73042    934.45122    16.598162    16.598162    82.990809 
   39500    1190.7654   -3931.5592    -4128.421   -830.27657   -1973.8734   -856.85718    339.90088    16.598768    16.598768    82.993842 
   39600    1178.0683   -3931.6203   -4126.3829   -473.27454   -1681.8179   -217.51448    479.50876    16.598371    16.598371    82.991857 
   39700    1133.4049   -3931.6616   -4119.0403    661.23854    108.74796    418.88541    1456.0822    16.598346    16.598346    82.991728 
   39800    1158.1866   -3931.6977   -4123.1734   -263.25501   -780.37673   -670.46382    661.07553    16.598649    16.598649    82.993245 
   39900    1134.0363   -3931.7207   -4119.2038    425.37565   -339.21372   -615.17322    2230.5139    16.599002    16.599002    82.995009 
   40000    1154.1924   -3931.7617   -4122.5771   -39.057535    207.63786    252.54806   -577.35852      16.5991      16.5991    82.995499 
   40100    1128.3564   -3931.7922   -4118.3362    651.40893   -525.75807    1189.8595    1290.1254    16.598983    16.598983    82.994917 
   40200    1136.4651   -3931.8171   -4119.7017    264.90809    486.21621    1509.6801   -1201.1721    16.598843    16.598843    82.994213 
   40300    1150.0325   -3931.8157   -4121.9434   -338.10508   -1636.0953    12.641346    609.13868    16.598819    16.598819    82.994096 
   40400    1138.4072   -3931.7984   -4120.0041   -36.513765    714.10984    -1203.364    379.71285    16.598431    16.598431    82.992155 
   40500    1168.4619   -3931.7697   -4124.9442   -701.16664   -1532.8237    74.609139   -645.28535    16.597854    16.597854    82.989269 
   40600    1175.3749   -3931.7191   -4126.0365   -602.32306   -759.15326   -337.74433   -710.07161    16.597261    16.597261    82.986305 
   40700    1162.6982   -3931.6827   -4123.9043   -276.85923   -1410.7633    337.49238     242.6932    16.596532    16.596532    82.982659 
   40800    1141.9698   -3931.6441   -4120.4388    438.70175    781.54603    307.46401    227.09521    16.596106    16.596106    82.980528 
   40900    1168.1863   -3931.6228   -4124.7517   -100.05317    1573.6303   -501.40392   -1372.3859    16.595899    16.595899    82.979494 
   41000    1148.9295   -3931.6387    -4121.584    160.17147   -491.20586   -549.50237    1521.2226    16.595857    16.595857    82.979283 
   41100    1176.9001   -3931.6445    -4126.214   -353.96883    1189.8273   -841.74812   -1409.9857    16.596619    16.596619    82.983095 
   41200    1137.5631   -3931.6642   -4119.7303    524.61706    1094.6879   -968.09986    1447.2631    16.597636    16.597636    82.988178 
   41300    1125.4983   -3931.6766   -4117.7482    571.44517    270.78736   -311.49365    1755.0418    16.598991    16.598991    82.994953 
   41400    1169.9675   -3931.6727    -4125.096   -441.31695    226.82052   -1088.4082   -462.36313     16.60029     16.60029    83.001448 
   41500    1135.4383   -3931.6564   -4119.3713    166.91798    70.884333    1604.0821   -1174.2125    16.601467    16.601467    83.007335 
   41600     1159.591   -3931.6614   -4123.3693   -786.17777   -1226.2855    -214.2621   -917.98573    16.601705    16.601705    83.008526 
   41700    1134.6372   -3931.6823   -4119.2647    373.56074    409.47299   -258.34899    969.55821    16.600665    16.600665    83.003326 
   41800    1108.8381   -3931.6498   -4114.9671    590.96741   -38.852678    767.74633    1044.0086    16.599849    16.599849    82.999247 
   41900    1166.8736   -3931.5455   -4124.4574    -418.8675    285.37761   -123.08031   -1418.8998    16.599606    16.599606    82.998031 
   42000    1143.5395    -3931.461   -4120.5153   -33.246476    706.46797   -917.01284    110.80544    16.598847    16.598847    82.994237 
   42100    1129.9755   -3931.3646   -4118.1764    651.12246    473.29075    1068.6412    411.43542    16.598059    16.598059    82.990295 
   42200     1152.058   -3931.2347   -4121.6972    9.5628314    506.38781   -965.01231      487.313     16.59781     16.59781     82.98905 
   42300    1162.6664   -3931.1081   -4123.3244    217.13612    -772.1164    769.88589    653.63886    16.597774    16.597774    82.988869 
   42400    1138.1093    -3931.007   -4119.1635    405.81655   -469.33967     1016.949    669.84031    16.597965    16.597965    82.989824 
   42500    1151.4128   -3930.8887   -4121.2446    93.024728   -844.88676    430.63962    693.32132    16.598956    16.598956    82.994779 
   42600    1154.8172   -3930.8052   -4121.7239   -225.08644    1073.0573    373.49339     -2121.81    16.599615    16.599615    82.998075 
   42700    1135.3158   -3930.7265   -4118.4211    149.41701    319.57961   -1198.9087    1327.5801    16.599962    16.599962    82.999811 
   42800    1155.6409   -3930.6601    -4121.715   -270.95558   -1271.8121    144.35012    314.59525    16.600086    16.600086     83.00043 
   42900     1131.013   -3930.5949   -4117.5782    416.95282    912.00491   -623.42153    962.27508    16.600131    16.600131    83.000655 
   43000    1144.1318   -3930.5651   -4119.7172    425.08423    286.21834    216.28228    772.75206    16.599938    16.599938    82.999692 
   43100    1166.9662   -3930.5282   -4123.4555   -714.59636    -1719.341   -359.87071   -64.577375    16.600292    16.600292    83.001459 
   43200    1136.9007   -3930.5108   -4118.4674    27.928639   -2424.2925    1073.4818    1434.5966    16.600287    16.600287    83.001434 
   43300    1163.4629   -3930.5063   -4122.8543    -192.0827    53.419734   -928.59729    298.92945    16.599949    16.599949    82.999746 
   43400    1141.9993   -3930.4983   -4119.2979   -305.29764   -978.21852   -1893.6089    1955.9345    16.599676    16.599676    82.998378 
   43500    1142.0867   -3930.4909    -4119.305   -3.8207371   -1749.9039   -778.93558    2517.3772    16.598892    16.598892    82.994461 
   43600    1120.7224    -3930.473    -4115.755    538.79002    123.65773   -513.86423    2006.5766    16.598005    16.598005    82.990027 
   43700    1125.3215   -3930.4179   -4116.4602    747.66057    1248.9202    2242.1469   -1248.0854    16.597671    16.597671    82.988353 
   43800    1159.1119   -3930.3946   -4122.0233    139.30958    435.97767     1215.956   -1234.0049    16.597582    16.597582    82.987908 
   43900    1127.3087   -3930.4149   -4116.7858    997.68679   -423.46477    2544.3853    872.13981    16.597622    16.597622     82.98811 
   44000    1173.1498   -3930.4391   -4124.3886    53.243205   -12.031641   -498.62274    670.38399    16.598367    16.598367    82.991836 
   44100    1146.5453   -3930.4831   -4120.0342    525.76187    1868.3302    1532.5631   -1823.6077    16.599597    16.599597    82.997985 
   44200    1154.6993   -3930.5314   -4121.4306   -265.19515    7.3123589    587.87122    -1390.769     16.60113     16.60113    83.005651 
   44300    1152.6222   -3930.6026   -4121.1584   -561.28406    539.39076   -951.89701   -1271.3459     16.60185     16.60185    83.009251 
   44400    1165.6547    -3930.657   -4123.3674   -103.10973    793.92934   -1413.4112    310.15272     16.60191     16.60191    83.009548 
   44500    1155.8872   -3930.7136   -4121.8092   -560.44902   -129.43992   -1241.6667   -310.24038    16.601521    16.601521    83.007603 
   44600    1190.5391   -3930.7459   -4127.5703   -1474.8551    18.973308   -3022.5848   -1420.9539    16.600708    16.600708    83.003538 
   44700      1174.25   -3930.8034   -4124.9348   -870.25949    -1475.793   -1269.7363     134.7508    16.598932    16.598932    82.994659 
   44800    1142.9497   -3930.8749   -4119.8316   -12.701916   -1367.9339    927.63173    402.19642    16.596949    16.596949    82.984746 
   44900    1173.0057   -3930.9075   -4124.8332   -408.18054    -329.7747   -528.47764   -366.28928    16.595871    16.595871    82.979357 
   45000    1143.1493   -3930.9654   -4119.9551    567.37522    1043.1737    1083.7038   -424.75177    16.594928    16.594928    82.974641 
   45100    1187.0436   -3931.0309   -4127.2773   -537.89162    246.61056      138.513   -1998.7984    16.594642    16.594642    82.973211 
   45200     1165.579    -3931.106   -4123.8038   -57.867127   -337.32809   -282.54325    446.26995    16.594881    16.594881    82.974407 
   45300    1166.9129   -3931.2017   -4124.1201   -338.10805    594.38368   -720.15229   -888.55553    16.595644    16.595644     82.97822 
   45400    1121.7572   -3931.3017   -4116.7548    1320.8191    2482.3795    810.28123    669.79649    16.596661    16.596661    82.983304 
   45500    1164.1407   -3931.3464   -4123.8065   -342.29353   -829.67802   -425.18954    227.98699    16.598918    16.598918    82.994591 
   45600    1136.2404   -3931.4037   -4119.2511     108.3064   -73.106386    554.89506   -156.86947     16.60086     16.60086    83.004299 
   45700    1146.5058    -3931.466   -4121.0106    -212.0313   -1780.9188    240.46591    904.35897    16.602294    16.602294    83.011468 
   45800    1148.9977   -3931.5262   -4121.4828   -733.80265   -1050.3408   -316.14719   -834.91994    16.602957    16.602957    83.014784 
   45900     1166.443   -3931.5614   -4124.4021   -989.58972   -2009.7958   -1219.1192    260.14587    16.602504    16.602504    83.012522 
   46000    1118.5787   -3931.6077   -4116.5353    568.06899   -433.38442    3070.9603   -933.36892     16.60048     16.60048    83.002402 
   46100    1173.3671   -3931.6337   -4125.6192   -809.85866   -2875.0916   -727.13939     1172.655    16.598002    16.598002     82.99001 
   46200    1174.2832   -3931.6757   -4125.8126   -169.54465   -1198.4249   -1388.1655    2077.9564    16.595286    16.595286    82.976431 
   46300    1135.1352   -3931.7084   -4119.3732    888.54844   -204.19504    760.19958    2109.6408    16.593499    16.593499    82.967493 
   46400    1154.4586   -3931.7333   -4122.5927    221.97559   -236.52087   -729.75673    1632.2044    16.592947    16.592947    82.964737 
   46500    1123.7383   -3931.7354    -4117.516     1164.844    144.42687    1167.2905    2182.8145    16.593539    16.593539    82.967695 
   46600    1183.3313   -3931.7462   -4127.3789   -712.84379   -1137.6791   -1595.6562    594.80395    16.595069    16.595069    82.975346 
   46700     1117.521   -3931.7987   -4116.5514    1104.9098    571.42021    601.87499    2141.4341    16.596258    16.596258    82.981288 
   46800     1156.497   -3931.8357   -4123.0321   -348.92562   -1650.5572   -697.79128    1301.5716    16.597999    16.597999    82.989995 
   46900    1150.5664    -3931.867   -4122.0829    -289.8069   -973.47611   -438.67944    542.73484    16.599648    16.599648     82.99824 
   47000     1134.064   -3931.8835   -4119.3712   -108.27485   -899.44144    351.19095    223.42594    16.601021    16.601021    83.005107 
   47100    1155.7361    -3931.858   -4122.9286   -387.42004    128.94835   -442.34398   -848.86449     16.60235     16.60235     83.01175 
   47200     1177.348   -3931.8735   -4126.5171   -886.00037   -2354.1551   -659.37005    355.52403    16.602407    16.602407    83.012037 
   47300    1133.4258   -3931.9058   -4119.2879   -296.86833    -922.0374   -1135.1396     1166.572    16.601296    16.601296    83.006481 
   47400    1133.6018   -3931.9158   -4119.3271    161.32201   -55.995361   -941.87971    1481.8411    16.599704    16.599704    82.998519 
   47500    1158.4616   -3931.9261   -4123.4473    53.376894    583.35099   -1784.2516    1361.0313    16.597949    16.597949    82.989743 
   47600    1156.4949   -3931.9263   -4123.1224     101.3689    773.10502   -1112.8183    643.81995    16.596544    16.596544    82.982721 
   47700    1154.5258   -3931.9286   -4122.7991    153.25497   -546.28621   -418.89976    1424.9509    16.595412    16.595412    82.977061 
   47800    1160.1894   -3931.9031     -4123.71    304.08318   -413.91129      1367.45     -41.2892    16.595207    16.595207    82.976035 
   47900    1149.4525   -3931.8871   -4121.9189    281.01528     1619.133   -923.96156    147.87444     16.59589     16.59589    82.979449 
   48000    1186.1575   -3931.8728   -4127.9728   -500.94224   -1600.4177    254.05214   -156.46119    16.597154    16.597154    82.985771 
   48100    1125.9168    -3931.889   -4118.0298    735.90747    1161.8551   -1684.9593    2730.8266    16.598425    16.598425    82.992127 
   48200    1165.5246   -3931.8652   -4124.5541   -835.48854   -1284.8514   -783.28357   -438.33066     16.60036     16.60036    83.001799 
   48300    1164.5737   -3931.8326   -4124.3642   -844.36361   -1706.8262    6.2084011   -832.47305    16.601598    16.601598    83.007992 
   48400    1158.9277   -3931.8135   -4123.4117   -494.12887    717.10688    -881.1738   -1318.3197    16.601609    16.601609    83.008046 
   48500    1118.7021   -3931.7917   -4116.7397    111.90139   -365.98351    267.58083    434.10684    16.601012    16.601012    83.005062 
   48600    1147.3153   -3931.7571   -4121.4356   -179.59035   -263.55971    -1098.542    823.33066    16.599806    16.599806    82.999028 
   48700    1122.7134   -3931.7067   -4117.3179    640.65764    640.99741    1432.6283   -151.65281    16.598272    16.598272    82.991361 
   48800    1151.0809   -3931.6288   -4121.9298   -103.78407   -460.15022   -1282.0641    1430.8621    16.597091    16.597091    82.985456 
   48900    1158.9618   -3931.5832   -4123.1871    73.386225   -1086.1189    994.80135    311.47618    16.595609    16.595609    82.978047 
   49000    1133.5931   -3931.5865   -4118.9964    928.12924   -148.29734    305.83371    2626.8514    16.594002    16.594002    82.970009 
   49100    1171.5253   -3931.5749   -4125.2558    101.37879   -1884.6259    362.17017    1826.5921    16.593849    16.593849    82.969247 
   49200    1151.8103   -3931.5344    -4121.956    374.21364    381.71883    740.73577   0.18632852    16.595106    16.595106    82.975532 
   49300    1167.7033   -3931.5165   -4124.5656   -242.11761    185.14253   -539.64555   -371.84982    16.596927    16.596927    82.984637 
   49400    1130.9454    -3931.527   -4118.4991    279.23241    2082.1972   -388.21669   -856.28327    16.598527    16.598527    82.992635 
   49500       1172.8   -3931.5298   -4125.4215   -931.09741   -1351.4798   -12.483026   -1429.3294    16.599884    16.599884    82.999419 
   49600    1159.8653   -3931.5307   -4123.2839   -552.63786   -1010.3589   -541.75882   -105.79588    16.600503    16.600503    83.002513 
   49700     1151.875   -3931.5716   -4122.0038   -3.3948138   -232.71938    629.95397   -407.41903    16.599785    16.599785    82.998927 
   49800    1160.2034   -3931.5965   -4123.4056   -317.72779     228.2979    17.088327   -1198.5696    16.599402    16.599402    82.997011 
   49900     1101.288   -3931.6033   -4113.6724    1065.2522    904.99707    3198.6212   -907.86178    16.599199    16.599199    82.995995 
   50000    1170.2064   -3931.5961    -4125.059   -412.15324    12.844849   -168.28421   -1081.0204    16.599212    16.599212    82.996059 
Loop time of 239.291 on 1 procs for 50000 steps with 1280 atoms

Pair  time (%) = 211.726 (88.4805)
Neigh time (%) = 18.731 (7.8277)
Comm  time (%) = 3.29765 (1.37809)
Outpt time (%) = 0.110368 (0.046123)
Other time (%) = 5.42603 (2.26755)

Nlocal:    1280 ave 1280 max 1280 min
Histogram: 1 0 0 0 0 0 0 0 0 0
Nghost:    3995 ave 3995 max 3995 min
Histogram: 1 0 0 0 0 0 0 0 0 0
Neighs:    46348 ave 46348 max 46348 min
Histogram: 1 0 0 0 0 0 0 0 0 0

Total # of neighbors = 46348
Ave neighs/atom = 36.2094
Neighbor list builds = 5000
Dangerous builds = 0
unfix		1

# Melt half the system
region  liquid block INF INF INF INF INF ${nzhalf}
region  liquid block INF INF INF INF INF 10
group	liquid_group region liquid
635 atoms in group liquid_group

# Heat up one side to Tmelt to make sure it is melted
fix 2 liquid_group npt temp ${Tmelt} ${Tmelt} 1 z 0 0 10 drag 1.0
fix 2 liquid_group npt temp 2000 ${Tmelt} 1 z 0 0 10 drag 1.0
fix 2 liquid_group npt temp 2000 2000 1 z 0 0 10 drag 1.0
run		${eqsteps}
run		50000
Memory usage per processor = 3.13778 Mbytes
Step Temp TotEng PotEng Press Pxx Pyy Pzz Lx Ly Lz 
   50000    1170.2064   -3931.5961    -4125.059   -412.15324    12.844849   -168.28421   -1081.0204    16.599212    16.599212    82.996059 
   50100    1182.0563   -3931.2292   -4126.6511   -640.08923   -1429.2715   -220.41844    -270.5777    16.599212    16.599212     82.99573 
   50200    1166.6582   -3930.2259   -4123.1021    100.01389    824.00347    21.661665   -545.62347    16.599212    16.599212    82.994935 
   50300    1178.1611   -3928.8212   -4123.5992   -69.716291   -28.914311    380.76656   -561.00113    16.599212    16.599212    82.993717 
   50400    1191.5587    -3927.298   -4124.2909    26.570595    662.25227   -171.85783   -410.68265    16.599212    16.599212    82.992255 
   50500    1175.1978   -3925.8559    -4120.144    908.11269     1425.004    85.482745    1213.8513    16.599212    16.599212    82.990633 
   50600    1190.5053   -3924.5122   -4121.3309    440.42599    1325.5676    310.69681   -314.98644    16.599212    16.599212    82.989276 
   50700    1182.9926   -3923.1597   -4118.7365    999.40095    1462.3897    879.32586    656.48727    16.599212    16.599212    82.987863 
   50800    1219.3563   -3921.7617   -4123.3502    149.50249    1360.6149    201.54238   -1113.6498    16.599212    16.599212    82.986478 
   50900    1204.7893   -3920.2957    -4119.476     1025.442    1761.4384    1345.6392   -30.751784    16.599212    16.599212    82.984838 
   51000    1201.1084   -3918.8082   -4117.3799    1277.6545    1294.5527    1996.1773    542.23335    16.599212    16.599212    82.983341 
   51100      1199.17   -3917.2889   -4115.5402    2053.6773     2088.156    3332.0117    740.86426    16.599212    16.599212    82.982022 
   51200    1231.5613   -3915.7478   -4119.3541    1142.6724    2155.7784    527.89898    744.33973    16.599212    16.599212    82.981042 
   51300     1197.048   -3914.2226   -4112.1231    2199.2075    2171.0521    3152.4243    1274.1462    16.599212    16.599212    82.980495 
   51400    1211.2561   -3912.6494   -4112.8987    2323.1867     2072.628    3256.7565    1640.1756    16.599212    16.599212    82.980334 
   51500    1241.9875   -3911.0789   -4116.4089    1763.0074    1188.8026    3090.0235    1010.1962    16.599212    16.599212     82.98087 
   51600     1225.248   -3909.5241   -4112.0866    2738.1825    2731.4343     3068.456    2414.6572    16.599212    16.599212    82.982252 
   51700    1261.5977   -3907.9587   -4116.5307    1985.5517    385.70352    3167.7024    2403.2491    16.599212    16.599212    82.984846 
   51800    1227.1333   -3906.3632   -4109.2374    3154.0166     2679.831    3840.1735    2942.0453    16.599212    16.599212    82.988645 
   51900    1256.8797     -3904.78    -4112.572    2623.3821    2719.0533    1157.6554    3993.4377    16.599212    16.599212     82.99388 
   52000    1288.8002   -3903.1736   -4116.2429     2229.124    2417.1134     2478.977    1791.2815    16.599212    16.599212    83.000958 
   52100    1279.1429   -3901.5786   -4113.0513    2548.6554    1861.5679      3032.12    2752.2781    16.599212    16.599212    83.009398 
   52200    1249.5988   -3900.0001   -4106.5885    3613.5434     4095.414    3709.2219    3035.9944    16.599212    16.599212    83.019166 
   52300    1244.1488   -3898.3859   -4104.0732     3990.945    4071.3849    4520.4927    3380.9575    16.599212    16.599212    83.029929 
   52400    1224.4508   -3896.8054   -4099.2362     4902.099    5434.0983     6305.798    2966.4009    16.599212    16.599212    83.041825 
   52500    1228.8573   -3895.2007     -4098.36    5026.2411     5410.075    5536.9358    4131.7127    16.599212    16.599212    83.054874 
   52600    1260.7691   -3893.6164   -4102.0515    4122.6051    3890.7055    5293.5123    3183.5976    16.599212    16.599212    83.069536 
   52700    1272.0791   -3892.0037   -4102.3085    4076.6713    4614.2217    4746.7237    2869.0684    16.599212    16.599212    83.085979 
   52800    1230.6055   -3890.4267   -4093.8749     5208.942    5561.7695    4661.8606    5403.1957    16.599212    16.599212    83.104045 
   52900    1268.7861   -3888.8465   -4098.6069    4671.2451    5233.7046    5366.4583    3413.5723    16.599212    16.599212    83.124138 
   53000    1275.3237   -3887.2374   -4098.0787    4282.9333    4246.1533    4860.2653    3742.3813    16.599212    16.599212    83.145685 
   53100    1281.7036   -3885.5976   -4097.4936    4458.5814    4967.6282    4249.8685    4158.2476    16.599212    16.599212    83.168648 
   53200    1235.8325   -3884.0048   -4088.3172    5785.7635    5364.7424    6645.0041     5347.544    16.599212    16.599212    83.193426 
   53300    1258.1064   -3882.4163   -4090.4112    5239.0268    4935.4906    7091.1158    3690.4741    16.599212    16.599212    83.220381 
   53400    1274.5197   -3880.7791   -4091.4874    5038.8781    5876.2272    5336.1796    3904.2274    16.599212    16.599212    83.248998 
   53500    1244.2601   -3879.2051   -4084.9108    5596.8895    6210.7191    6559.2407    4020.7088    16.599212    16.599212    83.279349 
   53600    1249.4987   -3877.6164   -4084.1882    5323.7475    4654.8054    7030.1654    4286.2718    16.599212    16.599212    83.311485 
   53700    1260.7639    -3876.054   -4084.4882    5195.8058     4484.269    7191.9871    3911.1612    16.599212    16.599212    83.345325 
   53800     1283.879   -3874.4596   -4086.7153    4900.3376    5919.9763    6166.5999    2614.4367    16.599212    16.599212    83.380858 
   53900    1263.2061   -3872.8698   -4081.7077    5620.9489    5476.8758    6304.3101    5081.6609    16.599212    16.599212     83.41798 
   54000    1266.8869   -3871.2588   -4080.7052    5490.3504    6162.5408     5577.196    4731.3142    16.599212    16.599212    83.457075 
   54100    1314.5609   -3869.6285   -4086.9566    4326.2235    3163.8962    5873.6852     3941.089    16.599212    16.599212    83.497904 
   54200    1270.7785   -3868.0097   -4078.0996    5504.2303    6878.6592    3344.6469    6289.3848    16.599212    16.599212    83.540364 
   54300    1282.3281   -3866.4081   -4078.4074    5801.6029    4867.1168    6380.3799    6157.3121    16.599212    16.599212    83.584973 
   54400    1253.6758   -3864.8402   -4072.1026    5886.2957    6972.2851    5633.8997    5052.7023    16.599212    16.599212    83.631805 
   54500    1276.7704   -3863.2377   -4074.3181    5032.4234    6560.7602    4791.7217    3744.7885    16.599212    16.599212     83.68042 
   54600    1277.1656   -3861.6092    -4072.755     4988.828    5143.5452    6154.5281    3668.4106    16.599212    16.599212    83.730014 
   54700    1286.7777   -3859.9694   -4072.7043    4778.5693    4805.9369    7935.3469    1594.4242    16.599212    16.599212    83.780312 
[...]
  136300    1150.5385   -3896.9979   -4087.2092    972.23352    918.91311    2579.2401   -581.45263    16.599212    16.599212     83.78497 
  136400    1168.6123   -3896.9715   -4090.1708    454.05343    166.67647    975.35228    220.13153    16.599212    16.599212     83.79616 
  136500    1173.5439   -3896.9529   -4090.9676   -174.07035   -309.96181    388.78848   -601.03771    16.599212    16.599212    83.807272 
  136600    1148.0884   -3896.9481   -4086.7543    258.83693    2048.2831    530.75234   -1802.5246    16.599212    16.599212    83.818174 
  136700    1133.8269   -3896.9423   -4084.3908    1299.2149    1594.5251    2618.7686   -315.64894    16.599212    16.599212    83.827841 
  136800    1147.0422   -3896.9332   -4086.5665    516.74501    1149.3731    1891.5385   -1490.6766    16.599212    16.599212    83.836514 
  136900    1155.3927   -3896.9145   -4087.9283    136.01135    -1140.472    1669.7734   -121.26728    16.599212    16.599212     83.84398 
  137000    1152.6368   -3896.9016   -4087.4598    76.541657    461.82665    2210.5193    -2442.721    16.599212    16.599212    83.850602 
  137100    1144.5259   -3896.8878   -4086.1051    309.75461    1983.5738    974.11217   -2028.4221    16.599212    16.599212    83.855422 
  137200    1134.5955   -3896.8813   -4084.4568    309.37653    655.23946    347.41694   -74.526824    16.599212    16.599212    83.858719 
  137300    1145.7511   -3896.8637   -4086.2836    421.07675    1133.9354     190.5495   -61.254657    16.599212    16.599212    83.861711 
  137400    1140.0153   -3896.8204    -4085.292    184.48645     1263.448    1169.4133    -1879.402    16.599212    16.599212    83.864873 
  137500     1152.963   -3896.7821   -4087.3943    20.683445    488.08092    609.60352   -1035.6341    16.599212    16.599212    83.866841 
  137600    1150.2452   -3896.7431   -4086.9059    446.09366     840.8547    1935.8167   -1438.3904    16.599212    16.599212    83.867855 
  137700    1142.3863   -3896.7193   -4085.5828    257.93709    1688.5269    488.43298   -1403.1486    16.599212    16.599212     83.86732 
  137800    1134.6697   -3896.7061   -4084.2939    535.46387     812.4366    719.74821      74.2068    16.599212    16.599212    83.865305 
  137900    1149.4756   -3896.7033   -4086.7389     317.2224    86.902073    597.62973    267.13539    16.599212    16.599212    83.862587 
  138000    1128.9158    -3896.721   -4083.3576    847.00254    995.29996    737.01219    808.69548    16.599212    16.599212    83.859677 
  138100    1147.2237   -3896.7239   -4086.3872    136.47845    1533.3452   -161.90146   -962.00836    16.599212    16.599212    83.857033 
  138200    1140.5275   -3896.7309   -4085.2872    176.50907    530.08636    1428.9181   -1429.4772    16.599212    16.599212    83.853479 
  138300    1147.6559   -3896.7366   -4086.4713    263.56373    2467.0856    390.37321   -2066.7676    16.599212    16.599212    83.848799 
  138400    1163.4871   -3896.7413   -4089.0933   -19.514963    638.99176    1556.4027   -2253.9393    16.599212    16.599212    83.842665 
  138500    1151.8702   -3896.7409   -4087.1724    739.97648    518.37824    1550.2277    151.32352    16.599212    16.599212    83.835046 
  138600    1141.1358   -3896.7381    -4085.395    669.25411    2422.1845    116.78019   -531.20238    16.599212    16.599212    83.827227 
  138700    1145.6579   -3896.7279   -4086.1324    869.91242    1827.1177    776.11315    6.5063643    16.599212    16.599212     83.81941 
  138800    1132.6199   -3896.7205   -4083.9694    944.02772    921.49624    1518.1401     392.4468    16.599212    16.599212    83.811597 
  138900    1178.7963   -3896.6992   -4091.5821    104.96029   -235.22425    674.37235   -124.26723    16.599212    16.599212    83.804194 
  139000    1160.6557   -3896.6929   -4088.5768    564.04285    2195.3094    752.72524   -1255.9061    16.599212    16.599212    83.796915 
  139100    1145.7564   -3896.6895   -4086.1102    1228.2042     1085.189    1881.8849    717.53878    16.599212    16.599212    83.789296 
  139200    1173.4251   -3896.6852   -4090.6802    504.30668    344.26248    1755.8664   -587.20889    16.599212    16.599212     83.78208 
  139300    1160.4444    -3896.704    -4088.553    416.78915    1068.1129    1454.3907   -1272.1361    16.599212    16.599212    83.774537 
  139400    1161.2289   -3896.7161   -4088.6948    448.38416   -382.40091    2127.6458   -400.09246    16.599212    16.599212    83.766738 
  139500    1140.1032   -3896.7384   -4085.2245    1162.6658    1406.1311    3548.1151   -1466.2488    16.599212    16.599212    83.758858 
  139600     1155.288   -3896.7429   -4087.7394    674.69744    343.71203     2405.985   -725.60475    16.599212    16.599212    83.750451 
  139700    1151.4258   -3896.7472   -4087.1052    975.48412      961.371     1834.205    130.87639    16.599212    16.599212    83.741997 
  139800    1125.3688   -3896.7438    -4082.794     1975.932    2079.9325    3065.0058    782.85774    16.599212    16.599212    83.733896 
  139900     1140.404    -3896.731   -4085.2668    1455.9957    1477.6384    1920.2866    970.06201    16.599212    16.599212    83.726449 
  140000    1150.2182   -3896.7054   -4086.8637     1318.742    261.52743    1044.0621    2650.6365    16.599212    16.599212      83.7203 
  140100    1170.9694   -3896.6811   -4090.2701    1287.2985    1726.1721    1702.2636    433.45976    16.599212    16.599212    83.716179 
  140200    1158.9325   -3896.6626   -4088.2617    1324.3267     1672.634    1780.0155    520.33051    16.599212    16.599212    83.712825 
  140300    1143.3142   -3896.6311    -4085.648    1409.1534    1934.6972    3698.7499    -1405.987    16.599212    16.599212    83.710258 
  140400    1140.0904   -3896.5993   -4085.0832    2145.2576    1666.7067    2893.0944    1875.9717    16.599212    16.599212    83.707328 
  140500    1150.7489   -3896.5642   -4086.8103    1064.3847    1240.2072    2029.8463   -76.899433    16.599212    16.599212    83.705527 
  140600    1153.6367   -3896.5394   -4087.2629     1690.621    1799.2774    2340.2244    932.36118    16.599212    16.599212    83.704287 
  140700    1149.6486   -3896.5215   -4086.5857    1493.7295    2377.5298    1727.4969    376.16178    16.599212    16.599212      83.7039 
  140800    1136.2432   -3896.5168   -4084.3647    2112.9415    1307.3505    2717.7692    2313.7049    16.599212    16.599212    83.703738 
  140900     1140.567   -3896.5117   -4085.0745    1544.1704    3260.2415    1199.3342    172.93555    16.599212    16.599212    83.705024 
  141000    1140.4792   -3896.4975   -4085.0458    1586.0135    2086.6911    1749.2898    922.05953    16.599212    16.599212    83.706856 
  141100    1139.0566   -3896.4804   -4084.7935    1506.5457    4127.1013    1444.8666   -1052.3308    16.599212    16.599212    83.708784 
  141200    1161.8438   -3896.4704   -4088.5508    1398.5043    2616.9911    1927.5806   -349.05866    16.599212    16.599212    83.709784 
  141300     1133.684   -3896.4644   -4083.8893    2303.3904    1472.8634    2764.9954    2672.3124    16.599212    16.599212    83.710927 
  141400    1173.5263   -3896.4452   -4090.4569    1066.9513     2048.296    1333.3248    -180.7669    16.599212    16.599212    83.713462 
  141500    1161.0258   -3896.4334   -4088.3785    1459.9997    1619.0398     2637.595    123.36429    16.599212    16.599212    83.716086 
  141600    1167.7406   -3896.4323   -4089.4875    1190.7418    2588.0831    2798.2741   -1814.1318    16.599212    16.599212    83.719045 
  141700    1143.8542   -3896.4305   -4085.5367    1366.2204    2967.3843    2720.9757   -1589.6988    16.599212    16.599212    83.721417 
  141800    1180.0242   -3896.4269   -4091.5129    719.75577    1704.8175    1444.9918   -990.54196    16.599212    16.599212    83.722792 
  141900    1156.2644   -3896.4231    -4087.581    1412.8388    1494.0865    2807.9416   -63.511685    16.599212    16.599212    83.723568 
  142000    1151.4084   -3896.4265   -4086.7817    840.06723    944.51417    1006.1746    569.51293    16.599212    16.599212     83.72445 
  142100    1167.8483   -3896.4416   -4089.5146    879.07361    2205.1003    465.65474   -33.534203    16.599212    16.599212    83.725735 
  142200     1154.099   -3896.4699   -4087.2699    1598.6852    2453.8296    2577.4938   -235.26788    16.599212    16.599212    83.726961 
  142300     1158.291   -3896.4895   -4087.9824    1061.2362    2168.1302    1858.8977   -843.31926    16.599212    16.599212    83.728011 
  142400    1172.3144   -3896.5131   -4090.3245    506.50942    1820.7405   -281.21918   -19.993021    16.599212    16.599212     83.72836 
  142500    1150.5833   -3896.5504   -4086.7691    1769.2841    3946.8589    1053.8902    307.10301    16.599212    16.599212    83.728511 
  142600    1157.1878    -3896.597   -4087.9076    1146.5224    1250.1979    1217.3757    971.99359    16.599212    16.599212    83.729079 
  142700    1147.1635   -3896.6482   -4086.3016    901.14427    623.65701     2028.576    51.199777    16.599212    16.599212    83.729992 
  142800    1149.6379   -3896.6978   -4086.7602    1565.2566    1540.9862    3398.7785   -243.99484    16.599212    16.599212    83.730811 
  142900    1166.6061   -3896.7599   -4089.6275     1081.381    2255.7211    777.13439    211.28768    16.599212    16.599212    83.731268 
  143000    1146.3504   -3896.8314   -4086.3503    891.44431    747.71944    1488.9027    437.71083    16.599212    16.599212    83.731737 
  143100    1152.9927   -3896.9008   -4087.5178    932.22384    1193.6595    65.490569    1537.5214    16.599212    16.599212    83.732743 
  143200    1146.0346   -3896.9727   -4086.4394    898.07616    1277.2771    1151.4712    265.48021    16.599212    16.599212    83.734639 
  143300    1148.3049   -3897.0523   -4086.8944    1173.3004    2203.4012    784.38556    532.11449    16.599212    16.599212    83.736483 
  143400    1141.9639   -3897.1384   -4085.9321    1492.4725    1515.9457    1640.0624    1321.4094    16.599212    16.599212    83.738364 
  143500    1178.1852   -3897.2196   -4092.0015    594.26471      760.794     1088.348   -66.347915    16.599212    16.599212    83.740852 
  143600    1165.4684   -3897.3057   -4089.9853    627.83262    2217.8544    2053.5734   -2387.9299    16.599212    16.599212    83.743517 
  143700    1150.0748   -3897.4153     -4087.55    1231.6134    1689.6698    292.39951    1712.7708    16.599212    16.599212    83.744848 
  143800     1170.184   -3897.5312   -4090.9903    235.07269    2085.5131   -1397.0497    16.754721    16.599212    16.599212    83.746896 
  143900    1130.0446   -3897.6582   -4084.4814    1679.4484    2580.2949    2403.4907     54.55959    16.599212    16.599212    83.748893 
  144000    1155.5247   -3897.7685   -4088.8042    480.09203    1746.0864    266.47367     -572.284    16.599212    16.599212    83.750565 
  144100      1137.76   -3897.8715   -4085.9703    1152.5276    1891.1224    2927.6831   -1361.2227    16.599212    16.599212    83.752312 
  144200    1133.8488   -3897.9705   -4085.4226    1090.6336     1516.313    1506.6025    248.98533    16.599212    16.599212    83.753615 
  144300    1150.5275   -3898.0562   -4088.2657    1008.1366    690.78586    941.27488    1392.3491    16.599212    16.599212    83.755133 
  144400    1148.1686   -3898.1373   -4087.9568    774.14366    1297.1771    82.440022    942.81389    16.599212    16.599212    83.757206 
  144500    1172.4062   -3898.2117   -4092.0383    195.71161    352.75908    573.98622   -339.61048    16.599212    16.599212    83.759248 
  144600    1144.2109   -3898.2963   -4087.4615    776.95026    1261.7926    1567.6921    -498.6339    16.599212    16.599212     83.76085 
  144700    1139.7728   -3898.3775   -4086.8089    755.59771    2732.4505    787.78142   -1253.4388    16.599212    16.599212    83.761538 
  144800    1146.4337    -3898.449   -4087.9817    560.47856    337.59343    736.98557    606.85667    16.599212    16.599212    83.761518 
  144900    1140.8656   -3898.5093   -4087.1215    1066.1351    2535.7529       1896.1   -1233.4474    16.599212    16.599212    83.761395 
  145000     1143.382   -3898.5689   -4087.5971    702.98168    1487.5718    2539.2079   -1917.8347    16.599212    16.599212    83.760289 
  145100    1160.9442   -3898.6286   -4090.5602     438.9927    799.83289    1522.8979   -1005.7527    16.599212    16.599212    83.757198 
  145200    1168.5529    -3898.684   -4091.8735    98.296228   -828.98668    1770.1195   -646.24418    16.599212    16.599212    83.752948 
  145300    1142.9845   -3898.7419   -4087.7044    727.52716   -284.07175    3522.6975   -1056.0442    16.599212    16.599212    83.748363 
  145400     1140.796   -3898.8007   -4087.4014    902.13675    690.99168    2504.0847   -488.66612    16.599212    16.599212    83.743306 
  145500    1172.4855   -3898.8616   -4092.7013    453.48414    1056.9156    623.15144   -319.61467    16.599212    16.599212    83.737667 
  145600    1171.1233   -3898.9302   -4092.5446    350.02573    45.452092     1599.074   -594.44892    16.599212    16.599212    83.731432 
  145700    1150.3095   -3898.9974   -4089.1708    765.03892    2460.4787   -128.55184   -36.810077    16.599212    16.599212    83.725011 
  145800    1163.7493   -3899.0684   -4091.4638    837.72712    43.154333    1945.6277     524.3993    16.599212    16.599212    83.719288 
  145900    1196.3979   -3899.1508   -4096.9438    -194.3394    434.67147    83.995742   -1101.6854    16.599212    16.599212    83.714172 
  146000    1164.6895   -3899.2389   -4091.7897    470.07966     1330.274    821.97445   -742.00948    16.599212    16.599212    83.709151 
  146100     1149.183   -3899.3324   -4089.3196    644.65665     1587.437    1351.7843   -1005.2514    16.599212    16.599212    83.704452 
  146200    1162.7283   -3899.4257   -4091.6522    400.81147    575.24409    1131.0035   -503.81314    16.599212    16.599212    83.699514 
  146300    1168.3882   -3899.5165   -4092.6787     718.8712    666.59975    1143.7707    346.24316    16.599212    16.599212    83.694377 
  146400    1152.5098   -3899.6209   -4090.1581    1030.9323    1527.5982    2928.1873   -1362.9888    16.599212    16.599212    83.688852 
  146500     1164.848   -3899.7354   -4092.3124     770.3547    382.11112    1326.8094    602.14355    16.599212    16.599212    83.682569 
  146600    1144.1175    -3899.851   -4089.0007    1366.6467    1618.1149    2288.9439     192.8814    16.599212    16.599212    83.676651 
  146700    1165.4607    -3899.973   -4092.6513    1110.9259    1654.2223    2547.1506   -868.59517    16.599212    16.599212    83.670507 
  146800    1174.1215   -3900.0979   -4094.2081    732.27059     806.2737    632.85494    757.68312    16.599212    16.599212    83.663935 
  146900    1178.4674   -3900.2266   -4095.0552    455.85487    -473.6711    2958.5961   -1117.3604    16.599212    16.599212    83.657921 
  147000    1153.0472   -3900.3616   -4090.9877    951.08646     2703.439    1221.7615   -1071.9411    16.599212    16.599212    83.651289 
  147100    1159.3606   -3900.4923   -4092.1621    1204.6694    2539.4217   -377.39764    1451.9843    16.599212    16.599212    83.644227 
  147200    1164.7446   -3900.6151    -4093.175    1239.4725    1752.2853    1197.6539    768.47835    16.599212    16.599212    83.637893 
  147300     1156.843   -3900.7299   -4091.9835    1214.9186    2396.1411    1162.8953    85.719389    16.599212    16.599212     83.63237 
  147400    1165.6202   -3900.8622   -4093.5669    990.27139    3328.5044   -7.4449583   -350.24533    16.599212    16.599212    83.626957 
  147500    1137.3528   -3900.9898   -4089.0212    1245.7115    60.517466    1583.6026    2093.0146    16.599212    16.599212    83.621991 
  147600    1162.2906   -3901.0934   -4093.2477    747.88807    1729.4852    2036.4701   -1522.2911    16.599212    16.599212    83.618253 
  147700     1182.769    -3901.193   -4096.7328    558.81149     1299.145    2139.1705    -1761.881    16.599212    16.599212    83.614102 
  147800    1157.2278   -3901.3063   -4092.6236    1026.4224    213.67661    2540.5349    325.05572    16.599212    16.599212    83.609203 
  147900    1159.1719   -3901.4193   -4093.0579    729.18891    803.28909    1950.9077   -566.63005    16.599212    16.599212    83.604317 
  148000    1146.9467   -3901.5297   -4091.1472    1377.9871    942.05918    2785.2878    406.61421    16.599212    16.599212    83.599314 
  148100    1151.5928   -3901.6355   -4092.0211    1698.8662    1532.2395    2497.0365    1067.3227    16.599212    16.599212    83.594728 
  148200    1150.9945   -3901.7378   -4092.0245    1510.1329    3299.4751    874.13331    356.79032    16.599212    16.599212    83.591036 
  148300    1152.8091   -3901.8511   -4092.4378    1486.3486    2048.9701    1368.6676    1041.4081    16.599212    16.599212    83.587468 
  148400    1156.6083   -3901.9602   -4093.1749     1361.587    1236.1838    558.11285    2290.4643    16.599212    16.599212    83.584572 
  148500    1162.5351   -3902.0679   -4094.2625    854.11055    764.06814    942.09596    856.16756    16.599212    16.599212    83.583485 
  148600    1155.2555   -3902.1797   -4093.1708    1160.8421    1849.5184    1967.5972   -334.58937    16.599212    16.599212     83.58353 
  148700    1145.4713   -3902.2817   -4091.6552    1262.7337    1216.6753    1268.4634    1303.0623    16.599212    16.599212    83.583645 
  148800    1162.9205   -3902.3771   -4094.6355    861.25383    3344.0259    515.10188   -1275.3663    16.599212    16.599212    83.584383 
  148900    1124.1627   -3902.4586   -4088.3094    1983.5144      2052.47    2715.3256    1182.7476    16.599212    16.599212    83.584825 
  149000    1171.2181   -3902.5287   -4096.1588    1022.1746    2275.2058    1626.8928   -835.57495    16.599212    16.599212    83.585622 
  149100    1174.3028   -3902.6082   -4096.7483     261.0012    377.54604    1424.6953   -1019.2377    16.599212    16.599212    83.586267 
  149200    1146.0482   -3902.6946   -4092.1636    1137.8311    2814.6608    1594.0906   -995.25826    16.599212    16.599212    83.586607 
  149300    1145.7303     -3902.78   -4092.1964    1259.5448    1459.2316    124.50171     2194.901    16.599212    16.599212    83.586437 
  149400    1140.5441   -3902.8383   -4091.3973    1506.2548    1015.8786    1679.6578    1823.2279    16.599212    16.599212    83.587293 
  149500    1160.4551   -3902.8837   -4094.7345    803.71442    1890.5169    304.47209    216.15422    16.599212    16.599212    83.588691 
  149600    1165.7263   -3902.9408    -4095.663    894.20799    2719.2406    922.60589   -959.22248    16.599212    16.599212    83.590302 
  149700    1147.6861   -3902.9995   -4092.7393    1383.9847    2939.3803    831.73813    380.83579    16.599212    16.599212    83.591978 
  149800    1141.3666   -3903.0651   -4091.7601    1711.3995    3055.5474    2671.8356   -593.18456    16.599212    16.599212    83.593758 
  149900    1142.7165   -3903.1163   -4092.0344    1726.4684    1079.1408    2533.1434     1567.121    16.599212    16.599212    83.595873 
  150000    1156.7414   -3903.1735   -4094.4103    1004.4311     1232.314    1907.2485   -126.26942    16.599212    16.599212    83.598722 
Loop time of 231.138 on 1 procs for 50000 steps with 1280 atoms

Pair  time (%) = 205.288 (88.8165)
Neigh time (%) = 18.3505 (7.93922)
Comm  time (%) = 3.16901 (1.37105)
Outpt time (%) = 0.112051 (0.048478)
Other time (%) = 4.21767 (1.82474)

Nlocal:    1280 ave 1280 max 1280 min
Histogram: 1 0 0 0 0 0 0 0 0 0
Nghost:    3894 ave 3894 max 3894 min
Histogram: 1 0 0 0 0 0 0 0 0 0
Neighs:    45623 ave 45623 max 45623 min
Histogram: 1 0 0 0 0 0 0 0 0 0

Total # of neighbors = 45623
Ave neighs/atom = 35.643
Neighbor list builds = 5000
Dangerous builds = 0
