LAMMPS (13 Jan 2014)
dimension       3
boundary        p p p
units           metal

atom_style	atomic
neighbor	0.3 bin
neigh_modify	every 10 delay 0 check no

# Number of steps for the equilibration steps
variable        eqsteps equal 50000

# Number of steps to run our NPH simulation
variable        simsteps equal 200000

# Our trial melting temperature
variable	T equal 1150.0
variable	T2 equal 2*${T}
variable	T2 equal 2*1150

# Some high temperature to melt the crystal
variable	Tmelt equal 2000.0

#System size
variable	nx equal 10
variable	ny equal 10
variable	nz equal 20
variable	nzhalf equal ${nz}*0.5
variable	nzhalf equal 20*0.5
variable	a equal 4.050
variable	length equal ${nz}*${a}
variable	length equal 20*${a}
variable	length equal 20*4.05

lattice		fcc ${a}
lattice		fcc 4.05
Lattice spacing in x,y,z = 4.05 4.05 4.05

region         box block 0 ${nx} 0 ${ny} 0 ${nz}
region         box block 0 10 0 ${ny} 0 ${nz}
region         box block 0 10 0 10 0 ${nz}
region         box block 0 10 0 10 0 20
create_box     1 box
Created orthogonal box = (0 0 0) to (40.5 40.5 81)
  1 by 1 by 1 MPI processor grid
create_atoms   1 box
Created 8000 atoms

mass		1 26.9815

pair_style	eam/alloy
pair_coeff	* * Al_potential.alloy Al

velocity	all create ${T2} 1337
velocity	all create 2300 1337

# Create a dump file. This can be visualized with
# e.g. OVITO (http://www.ovito.org/)
dump		id all atom 1000 atomsdump

# 1 fs timestep
timestep	0.001
thermo_style	custom step temp etotal pe press pxx pyy pzz lx ly lz

# output every 100th timestep
thermo		100

# Equilibration the whole system to the trial melting temperature
fix		1 all npt temp ${T} ${T} 1 iso 0 0 3 drag 1.0
fix		1 all npt temp 1150 ${T} 1 iso 0 0 3 drag 1.0
fix		1 all npt temp 1150 1150 1 iso 0 0 3 drag 1.0
run		${eqsteps}
run		50000
Memory usage per processor = 5.95314 Mbytes
Step Temp TotEng PotEng Press Pxx Pyy Pzz Lx Ly Lz 
       0         2300   -24799.162   -27177.252    15054.691     14880.95    14862.977    15420.146         40.5         40.5           81 
     100    1086.0233   -24824.424    -25947.32    38518.545    38876.082    38670.253    38009.299    40.590986    40.590986    81.181972 
     200    1084.2281   -24866.245   -25987.285    25822.485    26636.087    25752.387     25078.98    40.810468    40.810468    81.620937 
     300     1061.926   -24888.511   -25986.491    16264.848    16474.192    15880.348    16440.003    40.995002    40.995002    81.990003 
     400    1052.0443   -24896.607    -25984.37    9472.2931     9812.334    9299.7839    9304.7615    41.133375    41.133375     82.26675 
     500    1031.6021   -24897.352   -25963.979    4394.8189    4308.3734    4151.3006    4724.7827    41.246261    41.246261    82.492523 
     600    1016.7008   -24893.988   -25945.207     903.5898    1131.9609    1064.1943    514.61416    41.331759    41.331759    82.663517 
     700    1026.0906   -24888.649   -25949.577   -2007.2101   -2636.1565   -1519.8311   -1865.6428    41.388396    41.388396    82.776792 
     800    1025.9068   -24883.141   -25943.879   -3195.9836   -2826.9297   -3439.0731    -3321.948    41.418376    41.418376    82.836751 
     900     1013.185   -24878.124   -25925.709   -3140.9098   -3149.0124   -3861.4562   -2412.2606    41.426203    41.426203    82.852406 
    1000    1023.0555   -24873.525   -25931.316   -2707.2633   -3173.3429   -2841.5426   -2106.9043    41.417897    41.417897    82.835795 
    1100    1035.5686   -24869.086   -25939.814   -2137.6242   -2219.4063   -2119.6763     -2073.79    41.399612    41.399612    82.799224 
    1200    1024.3237   -24864.585   -25923.687   -557.33557    133.45294   -838.20855   -967.25108    41.377025    41.377025     82.75405 
    1300    1036.7756   -24859.872   -25931.848    254.09211    502.76102    559.76525   -300.24994     41.35631     41.35631    82.712621 
    1400    1055.1174   -24855.116   -25946.057    611.73644     482.5578    625.79285    726.85868    41.340822    41.340822    82.681643 
    1500    1036.3708   -24850.486   -25922.043    1731.4239    1859.4565    1548.7207    1786.0946     41.33229     41.33229    82.664579 
    1600    1037.2582   -24845.857   -25918.332    1855.9226    1473.9778    2351.2749    1742.5152    41.332459    41.332459    82.664918 
    1700    1062.2152   -24841.311   -25939.591    943.10681    1256.1763    991.79135    581.35273    41.340098    41.340098    82.680196 
    1800    1040.0486   -24836.823   -25912.183    1078.7856    884.96785    1231.7573    1119.6316    41.352216    41.352216    82.704431 
    1900    1060.3898   -24832.314   -25928.706    76.277292    31.982554    227.86212   -31.012799    41.366587    41.366587    82.733174 
    2000     1038.845   -24827.783   -25901.898    102.22186   -438.63595    161.94636    583.35516    41.380029    41.380029    82.760058 
    2100    1055.5891   -24823.217   -25914.646   -751.11551   -954.83289   -1050.0124   -248.50125     41.39076     41.39076     82.78152 
    2200    1054.4799   -24818.696   -25908.978   -822.19452    -1265.057   -444.67904   -756.84755    41.397048    41.397048    82.794096 
    2300     1052.359   -24814.201   -25902.289   -676.22645   -1593.7134   -416.31423   -18.651688    41.399239    41.399239    82.798477 
    2400    1050.1213   -24809.793   -25895.568   -508.26455   -811.09688   -304.63367   -409.06312    41.397341    41.397341    82.794682 
    2500    1062.9476   -24805.424    -25904.46    -460.2811   -197.79457   -735.18042    -447.8683    41.392837    41.392837    82.785673 
    2600    1064.6489   -24801.112   -25901.908   -58.981792   -28.960133    34.117492   -182.10274    41.387122    41.387122    82.774245 
    2700    1074.2448    -24796.85   -25907.568    92.797158   -114.02816    117.15769    275.26195    41.382133    41.382133    82.764265 
    2800     1071.825   -24792.666   -25900.882     368.4289    13.046685    592.25285    499.98716    41.379174    41.379174    82.758349 
    2900    1079.0493   -24788.536   -25904.221    419.62539     844.6098   -717.17484    1131.4412    41.379023    41.379023    82.758046 
    3000    1060.0308   -24784.508   -25880.528     733.7077    993.21297    682.37311    525.53703    41.381856    41.381856    82.763711 
    3100    1070.1697   -24780.485   -25886.989    372.56812    715.52429 -0.066177614    402.24626    41.387459    41.387459    82.774919 
    3200    1069.8797   -24776.495   -25882.699    310.65088   -45.555334    315.24257     662.2654    41.394509    41.394509    82.789019 
    3300     1084.452   -24772.523   -25893.794    -403.1101   -204.57889   -930.81203   -73.939368     41.40196     41.40196    82.803921 
    3400    1068.9621   -24768.565   -25873.821   -117.75714   -274.01306   -598.06786     518.8095     41.40825     41.40825      82.8165 
    3500    1065.8143   -24764.644   -25866.645   -53.787792   -718.12971     834.6001   -277.83376    41.412646    41.412646    82.825292 
    3600    1081.3472    -24760.78   -25878.841   -433.53779   -815.98096   -709.61345    224.98105    41.415518    41.415518    82.831036 
    3700    1060.1907   -24756.972   -25853.158    279.30233    634.94172    -62.76372    265.72899    41.416554    41.416554    82.833109 
    3800    1093.1896   -24753.162   -25883.468   -683.30892    -976.6056   -561.52009   -511.80107    41.416803    41.416803    82.833606 
    3900    1088.3107   -24749.444   -25874.705   -264.75006   -371.37323    132.74356   -555.62053    41.415406    41.415406    82.830813 
    4000    1103.5693   -24745.811   -25886.849   -524.43239    -419.4046   -1269.7509     115.8583    41.413391    41.413391    82.826783 
    4100    1067.1494   -24742.255   -25845.636    678.40589    892.50534    1023.5379    119.17437    41.411142    41.411142    82.822284 
    4200    1091.8933   -24738.686   -25867.651    132.54242    -65.17176    118.02052     344.7785    41.410613    41.410613    82.821225 
    4300    1091.0796   -24735.136    -25863.26    110.44248    544.25395   -324.50056    111.57405    41.411658    41.411658    82.823317 
    4400    1091.0161   -24731.613   -25859.671    140.05359    355.53639    69.072778   -4.4484138     41.41404     41.41404    82.828081 
    4500    1080.0321   -24728.112   -25844.813    351.47301   -100.45517    600.09722    554.77699    41.417601    41.417601    82.835202 
    4600     1102.233   -24724.686   -25864.342   -231.07033    -755.0136    126.84609   -65.043487    41.421647    41.421647    82.843295 
    4700    1099.6314   -24721.375   -25858.341   -147.91574    168.55481   -657.21784     44.91581    41.425227    41.425227    82.850454 
    4800    1084.8448   -24718.113    -25839.79    137.26334    512.77994    155.44932   -256.43925    41.428553    41.428553    82.857106 
    4900    1093.8014   -24714.833   -25845.771   -218.73463    59.723471   -159.01506   -556.91229    41.431892    41.431892    82.863784 
    5000    1091.5503   -24711.583   -25840.194   -192.72939    237.84488   0.43422096   -816.46728    41.434132    41.434132    82.868264 
    5100    1084.1237   -24708.396   -25829.328    178.08926    398.97938     14.17337    121.11502    41.434696    41.434696    82.869391 
    5200    1106.3829   -24705.233    -25849.18    -318.0173   -452.75543   -259.32471   -241.97175    41.434677    41.434677    82.869354 
    5300    1093.8308   -24702.134   -25833.103    238.39405    624.91169    556.39201   -466.12155    41.434036    41.434036    82.868072 
    5400    1101.2022   -24699.065   -25837.656    99.817415    245.27559    -743.1022    797.27886    41.433846    41.433846    82.867691 
    5500    1103.1658    -24696.02    -25836.64   -6.9162753    131.62156    287.46772   -439.83811    41.434166    41.434166    82.868331 
    5600    1096.2372   -24693.068   -25826.524    295.79638    93.355289    204.17801    589.85583    41.434457    41.434457    82.868915 
    5700    1106.4878   -24690.179   -25834.234    69.939302    614.26568   -363.86047   -40.587308    41.435191    41.435191    82.870382 
    5800    1100.0457   -24687.341   -25824.736    265.82803    855.44632   -246.40043     188.4382    41.436547    41.436547    82.873094 
    5900    1102.5197   -24684.447   -25824.399     179.2902   -248.07883    1054.7629    -268.8135    41.438942    41.438942    82.877884 
    6000      1104.94   -24681.565    -25824.02    109.69017   -364.00001   -22.236659    715.30717    41.441751    41.441751    82.883502 
    6100    1105.7286   -24678.709   -25821.979    147.86126    26.641343    266.16018    150.78226    41.445081    41.445081    82.890162 
    6200    1107.5484   -24675.903   -25821.055    21.163371    333.62619    -309.1804     39.04433     41.44855     41.44855      82.8971 
    6300    1104.5909   -24673.181   -25815.275    49.681325    458.00325    -149.1438   -159.81548    41.451457    41.451457    82.902914 
    6400     1106.019   -24670.495   -25814.066    14.983463     424.0926    105.00189   -484.14411    41.453562    41.453562    82.907125 
    6500    1093.5585   -24667.841   -25798.528    190.39238   -7.2575023    722.35786   -143.92322    41.454711    41.454711    82.909423 
    6600    1118.3702   -24665.179    -25821.52    -372.7969   -320.17018   -449.79343   -348.42708    41.455338    41.455338    82.910677 
    6700    1119.9071   -24662.587   -25820.517   -332.27527   -163.69843   -557.15593   -275.97145    41.454853    41.454853    82.909707 
    6800    1120.1092   -24660.132   -25818.271   -53.892422    241.47461    -195.6894   -207.46248    41.453242    41.453242    82.906484 
    6900    1120.2514   -24657.713   -25815.999    111.81765   -353.16335    24.660338    663.95597    41.451965    41.451965    82.903929 
    7000    1114.2793   -24655.261   -25807.372    253.72779    141.40885   -202.33745    822.11198    41.452271    41.452271    82.904543 
    7100     1105.228   -24652.847   -25795.599    447.68975    970.87269    273.33931    98.857269    41.453721    41.453721    82.907442 
    7200    1127.4725     -24650.5   -25816.253    35.033796    41.279974    302.08734   -238.26592    41.456188    41.456188    82.912376 
    7300    1112.6348   -24648.246   -25798.657    182.66093    1211.5452   -528.96782   -134.59459    41.458908    41.458908    82.917816 
    7400    1125.4786   -24645.992   -25809.683   -154.04076    602.67462   -421.46281   -643.33408    41.461822    41.461822    82.923644 
    7500    1119.1215   -24643.808   -25800.926   -185.41218   -728.43869    216.24394   -44.041795     41.46406     41.46406     82.92812 
    7600    1122.6273   -24641.617    -25802.36   -158.62079   -889.37567   -70.511531    484.02484    41.465421    41.465421    82.930842 
    7700    1107.5017    -24639.45   -25784.554    285.87375    240.94262      110.755    505.92364    41.466289    41.466289    82.932579 
    7800    1112.2007   -24637.204   -25787.166    221.78823    223.95603   -167.03407    608.44272    41.467281    41.467281    82.934563 
    7900    1134.9499   -24634.961   -25808.444   -499.69331   -452.97024   -290.77509    -755.3346    41.468136    41.468136    82.936272 
    8000    1127.3505   -24632.818   -25798.444   -175.51308   -169.46988   -326.03492   -31.034435    41.467999    41.467999    82.935999 
    8100    1137.5816   -24630.673   -25806.878   -356.36718   -373.03546   -562.16794   -133.89814    41.468023    41.468023    82.936046 
    8200    1125.0739   -24628.671   -25791.943    165.18496    218.01204    27.172803    250.37004     41.46744     41.46744     82.93488 
    8300    1126.8259   -24626.737   -25791.821    79.065428   -36.207581    660.73787     -387.334    41.467268    41.467268    82.934536 
    8400    1122.6125   -24624.763   -25785.491    356.28972    107.90565   -190.42389    1151.3874    41.468321    41.468321    82.936642 
    8500    1134.7506   -24622.733    -25796.01   -101.71254     390.1261    327.83161   -1023.0953    41.471203    41.471203    82.942406 
    8600    1130.7143   -24620.782   -25789.886   -113.54704    138.15768   -298.84034   -179.95846    41.474197    41.474197    82.948394 
    8700    1128.2939   -24618.964   -25785.566   -93.239398     27.56597    267.11906   -574.40323     41.47632     41.47632     82.95264 
    8800    1134.3278   -24617.265   -25790.106   -58.769685   -102.95059    166.80981   -240.16827     41.47751     41.47751    82.955019 
    8900     1141.434   -24615.562    -25795.75   -425.15933    14.355404    -1090.567   -199.26635    41.478418    41.478418    82.956836 
    9000    1134.0356   -24613.934   -25786.472   -164.07188    47.645004   -433.88963   -105.97101    41.478353    41.478353    82.956705 
    9100    1144.5528   -24612.249   -25795.662     -497.099   -396.57728   -527.62932    -567.0904    41.478096    41.478096    82.956192 
    9200    1126.7832   -24610.642   -25775.682    140.08725    123.50763    121.52203     175.2321    41.476965    41.476965     82.95393 
    9300    1118.7611   -24609.087   -25765.832    309.82594     264.5167    24.362358    640.59876    41.475826    41.475826    82.951652 
    9400    1132.7786   -24607.543   -25778.781     230.6177   -410.68438    280.56842    821.96907    41.475255    41.475255     82.95051 
    9500    1142.6237   -24606.039   -25787.457   -46.616304   -798.86175   -178.86029    837.87312    41.475258    41.475258    82.950516 
    9600    1120.7843   -24604.551   -25763.388    386.95232    750.22085    495.70847   -85.072358    41.476071    41.476071    82.952142 
    9700     1139.136   -24602.989   -25780.801    108.44922   -678.90243   -179.93374    1184.1838    41.478126    41.478126    82.956252 
    9800    1141.7052   -24601.416   -25781.885   -22.587551    190.90954   -720.57243    461.90024    41.480971    41.480971    82.961942 
    9900    1139.3398   -24599.933   -25777.955   -202.90226   -131.45303    60.617375   -537.87111    41.483625    41.483625    82.967249 
   10000    1146.9098   -24598.517   -25784.367   -278.36586   -635.28205   -5.7108122   -194.10472    41.485603    41.485603    82.971206 
   10100    1134.4167   -24597.223   -25770.156    -61.62683    225.98385   -220.48822   -190.37612    41.486773    41.486773    82.973545 
   10200      1137.75   -24595.915   -25772.293   -238.30276   -282.25466    35.635053   -468.28867    41.487547    41.487547    82.975094 
   10300    1149.8741   -24594.573   -25783.488   -313.64686    140.69134   -443.69942   -637.93251    41.487789    41.487789    82.975578 
   10400    1144.3772   -24593.322   -25776.553    -226.5556   -469.91816   -94.968881   -114.77976    41.487277    41.487277    82.974555 
   10500    1138.2646    -24592.11   -25769.021    20.541521    370.39786   -39.358804   -269.41449    41.486274    41.486274    82.972549 
   10600    1134.4999   -24590.951   -25763.969    186.24365    437.42348    442.77495   -321.46747    41.485137    41.485137    82.970274 
   10700    1140.1777   -24589.794   -25768.683    104.44747    32.278223   -132.52197    413.58617    41.484351    41.484351    82.968703 
   10800    1140.2227   -24588.632   -25767.567    70.765773    268.84321    37.105115    -93.65101    41.484275    41.484275     82.96855 
   10900    1152.1345    -24587.43   -25778.682   -68.611406    412.81613   -416.63458   -202.01577    41.484873    41.484873    82.969746 
   11000    1134.8715   -24586.357    -25759.76    329.04988    316.48858    623.54599    47.115063    41.485512    41.485512    82.971024 
   11100    1145.4649   -24585.324    -25769.68   -86.427587     288.2014   -873.27399    325.78983    41.486836    41.486836    82.973671 
   11200    1130.1763   -24584.275   -25752.822    301.67242    750.87719 -0.078042481     154.2181    41.488844    41.488844    82.977688 
   11300    1136.6896   -24583.125   -25758.407    88.158927    -70.57422    532.34416   -197.29316    41.491811    41.491811    82.983622 
   11400    1151.3094   -24582.052    -25772.45   -295.34345   -307.38818    30.704911   -609.34708     41.49444     41.49444     82.98888 
   11500    1140.9374   -24581.065   -25760.739   -191.00874    228.27212   -245.84289   -555.45545    41.496341    41.496341    82.992681 
   11600    1155.6507   -24580.029   -25774.916   -470.19162    -245.7547   -298.36729   -866.45286    41.497716    41.497716    82.995431 
   11700    1140.5933   -24578.983   -25758.301   -202.02642   -470.28168    57.755911    -193.5535     41.49805     41.49805      82.9961 
   11800    1154.8764   -24577.967   -25772.054   -431.90064   -697.60976   -52.000591   -546.09156    41.497302    41.497302    82.994604 
   11900    1145.6263   -24577.085   -25761.607   -185.42116    71.614841   -217.18567   -410.69266    41.495229    41.495229    82.990458 
   12000    1146.8499    -24576.23   -25762.017    116.50742    128.18279    224.52868   -3.1892093    41.492672    41.492672    82.985343 
   12100    1154.9372   -24575.416   -25769.566    119.23403    449.08322   -120.02961    28.648464    41.490543    41.490543    82.981085 
   12200    1139.6581   -24574.619   -25752.971    304.62463   -344.37069     927.9417    330.30289     41.48991     41.48991     82.97982 
   12300    1134.9677   -24573.952   -25747.454      419.573    724.45607   -171.24368    705.50661     41.48995     41.48995      82.9799 
   12400    1152.8279   -24573.268   -25765.236   -70.138639    174.21993    305.54768   -690.18353    41.491591    41.491591    82.983182 
   12500    1147.2203   -24572.653   -25758.824    120.63935   -252.12994     134.7543     479.2937    41.493776    41.493776    82.987551 
   12600    1156.7054   -24572.127   -25768.104   -238.03705   -129.29944    184.50106   -769.31276    41.496202    41.496202    82.992404 
   12700    1157.3166   -24571.699   -25768.309   -469.52191   -1120.4394   -202.90637   -85.219933     41.49781     41.49781     82.99562 
   12800    1143.6528   -24571.269   -25753.751   -18.426209    -549.7437    157.82505    336.64003    41.498641    41.498641    82.997281 
   12900    1150.3217    -24570.88   -25760.257   -71.873614    171.40945   -61.569828   -325.46046     41.49872     41.49872    82.997441 
   13000    1140.1885   -24570.529   -25749.429    113.89997    366.26507   -148.77117    124.20601    41.498277    41.498277    82.996554 
   13100    1148.6887    -24570.11   -25757.799    165.48552   -301.23511    739.65473    58.036928    41.498174    41.498174    82.996348 
   13200    1143.9506   -24569.717   -25752.507    37.133496   -482.87548    81.161129    513.11484    41.498186    41.498186    82.996371 
   13300    1153.4943   -24569.325   -25761.982   -72.010754   -77.932733    322.70667    -460.8062     41.49844     41.49844     82.99688 
   13400    1160.6365   -24568.937   -25768.979    -425.8344   -224.45295   -644.74828   -408.30198    41.499016    41.499016    82.998031 
   13500    1148.1344   -24568.606   -25755.722   -137.76999   -699.86316    334.02224    -47.46905    41.498921    41.498921    82.997842 
   13600    1160.1791   -24568.291    -25767.86   -237.24813   -468.18649    -319.2058    75.647897    41.498409    41.498409    82.996817 
   13700    1144.4654   -24568.057    -25751.38    183.77447   -106.30829    445.20637    212.42534     41.49748     41.49748    82.994959 
   13800    1139.7182   -24567.832   -25746.246    412.25899   -107.98995    734.62874    610.13817    41.496542    41.496542    82.993083 
   13900    1154.0772   -24567.636   -25760.897    71.002738    355.12672    196.48396   -338.60246    41.496046    41.496046    82.992093 
   14000    1150.9197   -24567.517   -25757.513    77.151142    196.89628   -91.394579    125.95173    41.495717    41.495717    82.991435 
   14100     1146.627   -24567.419   -25752.977    111.38849    300.91322   -211.55572    244.80798    41.495801    41.495801    82.991602 
   14200    1152.6653   -24567.339    -25759.14   -82.271815   -723.10337    -174.0193    650.30723    41.496139    41.496139    82.992278 
   14300    1154.7485    -24567.27   -25761.224   -294.46349    217.24882   -1135.0001    34.360846    41.496484    41.496484    82.992968 
   14400    1147.1701   -24567.269   -25753.388    51.932507    22.292507    12.094459    121.41055    41.496075    41.496075    82.992149 
   14500    1144.5997   -24567.238   -25750.699    265.45826   -635.59873    717.75972     714.2138    41.495885    41.495885     82.99177 
   14600    1151.3944   -24567.179   -25757.666   -67.925791    -233.7178   -596.79631    626.73673    41.496441    41.496441    82.992882 
   14700    1152.9484   -24567.157    -25759.25   -149.17371   -345.14357    8.9622122   -111.33977    41.496963    41.496963    82.993927 
   14800    1151.7273   -24567.163   -25757.994   -97.689075    168.90709   -383.89292   -78.081395     41.49729     41.49729    82.994579 
   14900    1151.4828    -24567.19   -25757.768    2.0028275   -221.92216    210.62433    17.306315    41.497568    41.497568    82.995136 
   15000    1164.3241   -24567.186   -25771.041   -211.98036   -259.04295   -321.77679   -55.121348    41.498449    41.498449    82.996897 
   15100    1157.0292   -24567.286   -25763.599   -257.94387   -163.43248    102.89913   -713.29827    41.499256    41.499256    82.998512 
   15200    1147.8151   -24567.431   -25754.217    67.343276    3.6567548    236.58887   -38.215795    41.499365    41.499365    82.998731 
   15300    1159.6905   -24567.593   -25766.657   -422.22705   -90.614508   -1017.8003   -158.26636     41.49906     41.49906    82.998119 
   15400    1147.5161   -24567.706   -25754.183     97.69874    195.06508    220.93882   -122.90769    41.498546    41.498546    82.997091 
   15500    1157.4572   -24567.694   -25764.449   -292.93803   -195.36206   -332.30358   -351.14845    41.498836    41.498836    82.997671 
   15600      1158.35   -24567.636   -25765.314   -348.56655    100.94667   -509.66107   -636.98524    41.499189    41.499189    82.998379 
   15700    1144.9822   -24567.669   -25751.525    111.23731    341.86728    271.18814    -279.3435    41.498568    41.498568    82.997135 
   15800    1148.5968   -24567.708   -25755.302    236.01768   -2.6086738    461.01226    249.64947    41.497852    41.497852    82.995705 
   15900    1139.0343   -24567.669   -25745.376    277.82651    618.34326     431.9645   -216.82822    41.497926    41.497926    82.995852 
   16000    1149.5145   -24567.545   -25756.088    -56.93667    640.49732   -398.38003   -412.92729    41.498638    41.498638    82.997276 
   16100    1135.5945   -24567.378   -25741.528    331.94468    677.11353   -461.25391    779.97443    41.499348    41.499348    82.998695 
   16200    1156.2972    -24567.16   -25762.715   -335.52719   -523.22738   -539.14483    55.790655    41.500195    41.500195    83.000389 
   16300    1155.2851   -24567.065   -25761.574   -104.21474   -302.53379    327.35401   -337.46445     41.49978     41.49978    82.999561 
   16400    1156.8457   -24566.965   -25763.087   -373.46538   -361.61977   -419.46567    -339.3107    41.499572    41.499572    82.999144 
   16500    1139.2215   -24566.773   -25744.673    138.85509    759.21246   -298.54051   -44.106678    41.499447    41.499447    82.998894 
   16600    1157.3759   -24566.657   -25763.328   -205.83408   -464.56818   -2.4952208   -150.43884    41.498777    41.498777    82.997554 
   16700    1153.4059   -24566.571   -25759.138   -41.502013    958.05858   -778.19192    -304.3727    41.497905    41.497905     82.99581 
   16800    1134.7082   -24566.504   -25739.737      529.509    698.29914    714.82612    175.40173    41.497025    41.497025    82.994051 
   16900    1145.9933    -24566.36   -25751.262     131.2596    82.531894    652.40272   -341.15582    41.497279    41.497279    82.994558 
   17000    1153.2072   -24566.132   -25758.492   -72.607544   -729.13789    -47.67457    558.98982    41.498178    41.498178    82.996356 
   17100    1140.1498   -24565.917   -25744.777    77.103801    263.08516   -275.25944    243.48568     41.49882     41.49882    82.997639 
   17200    1148.7674   -24565.692   -25753.463   -48.877621    28.768181   -1078.6921    903.29108    41.499128    41.499128    82.998257 
   17300    1142.0673   -24565.514   -25746.356    205.32825   -90.619906   -367.87878    1074.4835     41.49891     41.49891    82.997821 
   17400    1170.2294   -24565.365   -25775.326   -650.94358   -1399.4233    -107.2052   -446.20228    41.498714    41.498714    82.997427 
   17500    1138.6769   -24565.299   -25742.637    381.66189   -923.19227    734.51812    1333.6598    41.498009    41.498009    82.996018 
   17600    1147.2193   -24565.171    -25751.34    112.96717    258.01983   -215.96882    296.85049    41.498204    41.498204    82.996409 
   17700    1148.1453   -24565.038   -25752.165      31.9632   -148.05352   -493.16735    737.11047    41.498731    41.498731    82.997462 
   17800    1154.7199   -24564.945    -25758.87   -127.70713   -159.31032   -799.75239    575.94133     41.49912     41.49912     82.99824 
   17900    1171.8627    -24564.87    -25776.52   -594.47948    106.10235   -1354.4355   -535.10526    41.499659    41.499659    82.999318 
   18000    1147.8149   -24564.931   -25751.716   -77.663883    482.05161   -755.95719    40.913934      41.4994      41.4994      82.9988 
   18100    1139.8504   -24564.902   -25743.452    196.04154    519.87259    577.19446   -508.94242    41.499177    41.499177    82.998353 
   18200    1139.6051   -24564.829   -25743.126    312.38827     -57.7322     836.8278    158.06921    41.499029    41.499029    82.998058 
   18300    1146.4695   -24564.824   -25750.218     129.9176    614.36673   -1043.5672    818.95325    41.498782    41.498782    82.997564 
   18400    1154.1778    -24564.83   -25758.194   -103.56812    271.32684   -584.28663    2.2554133    41.498859    41.498859    82.997718 
   18500    1139.4839   -24564.926   -25743.098    219.70927    348.24683   -110.75542    421.63639    41.498321    41.498321    82.996643 
   18600    1157.9667   -24564.898    -25762.18   -92.229013    129.22045   -295.48719   -110.42031    41.498565    41.498565    82.997129 
   18700    1142.1533   -24564.916   -25745.848    261.10424    436.77273    466.76324   -120.22326    41.498849    41.498849    82.997697 
   18800    1147.1362   -24564.845   -25750.928    120.86963    28.426758    235.43956    98.742579    41.499792    41.499792    82.999583 
   18900    1150.8927   -24564.712    -25754.68   -107.45746   -440.69024   -232.60558    350.92345    41.501162    41.501162    83.002325 
   19000    1136.7646   -24564.723   -25740.083    363.79111    855.68317   -52.639199    288.32935    41.501363    41.501363    83.002725 
   19100    1166.6903   -24564.687   -25770.988   -618.32277   -1336.9208    234.62574   -752.67329    41.501532    41.501532    83.003065 
   19200    1158.2041   -24564.709   -25762.236   -177.75247   -331.14642   -14.865772   -187.24522    41.500591    41.500591    83.001183 
   19300     1160.344   -24564.759   -25764.499   -197.64409    21.148977    23.312383   -637.39363    41.499562    41.499562    82.999123 
   19400    1153.6799    -24564.87   -25757.719   -47.346847    468.54055   -809.89797    199.31688    41.498401    41.498401    82.996803 
   19500    1149.3997   -24565.004   -25753.428    28.165749   -12.039626   -733.53994    830.07681    41.497419    41.497419    82.994838 
   19600    1151.4412   -24565.056   -25755.591   -56.918854   -52.944598   -427.23538    309.42342    41.497313    41.497313    82.994626 
   19700    1136.0123   -24565.106   -25739.688    406.75326    799.68295   -378.44641    799.02324    41.497338    41.497338    82.994676 
   19800    1160.9726   -24565.113   -25765.502   -133.07677    607.23517   -307.64692   -698.81857    41.498065    41.498065     82.99613 
   19900    1133.2612   -24565.179   -25736.916    410.96631    879.03641   -305.47921    659.34173    41.498717    41.498717    82.997434 
   20000    1167.6425   -24565.115   -25772.401   -548.66097   -234.18402   -819.29937   -592.49953    41.500217    41.500217    83.000434 
   20100     1153.879   -24565.257   -25758.312   -130.56158    44.366436   -434.48603    -1.565148    41.500238    41.500238    83.000476 
   20200    1152.5021   -24565.279    -25756.91   -166.70959   -478.66276   -157.87921     136.4132    41.500618    41.500618    83.001235 
   20300     1144.784   -24565.252   -25748.904   -8.4842023    151.33255    25.693975   -202.47913    41.500677    41.500677    83.001354 
   20400    1140.4125   -24565.181   -25744.312    132.57254    618.73883   -371.54585    150.52465     41.50043     41.50043    83.000861 
   20500    1144.6379   -24564.978   -25748.479    81.556337   -310.23724    280.80261    274.10364    41.500871    41.500871    83.001743 
   20600    1153.0991   -24564.741    -25756.99   -88.915611    351.66542   -317.32054   -301.09171    41.501398    41.501398    83.002796 
   20700    1158.4684   -24564.502   -25762.303   -367.56555    -382.5652    4.9138494    -725.0453    41.502003    41.502003    83.004007 
   20800    1158.3583   -24564.239   -25761.925   -239.38365    215.37289   -613.87634   -319.64751    41.502282    41.502282    83.004563 
   20900    1156.5637   -24564.007   -25759.838    -221.6392   -124.71483   -428.21474   -111.98803    41.502133    41.502133    83.004265 
   21000    1133.7497    -24563.83   -25736.073    291.55262     142.8279   -130.30242    862.13238    41.501332    41.501332    83.002663 
   21100    1153.8275   -24563.697   -25756.699   -66.185819   -50.131753    406.01052   -554.43622    41.500404    41.500404    83.000808 
   21200    1137.0156   -24563.697   -25739.316    469.17578    203.45123    917.57432    286.50178    41.498868    41.498868    82.997737 
   21300    1147.4724   -24563.665   -25750.096    113.05704    868.37084   -171.71247   -357.48726     41.49821     41.49821    82.996421 
   21400    1145.4958   -24563.616   -25748.004    109.93744    797.64623   -164.14936   -303.68456    41.497903    41.497903    82.995806 
   21500     1147.425   -24563.574   -25749.956     93.72221    136.75552     176.6687   -32.257588    41.497863    41.497863    82.995727 
   21600    1163.2499   -24563.586    -25766.33   -280.55807    39.754043   -718.74598   -162.68227    41.498043    41.498043    82.996085 
   21700    1160.7971   -24563.716   -25763.924   -295.51679   -409.42887    61.979337   -539.10083    41.497933    41.497933    82.995867 
   21800    1140.6772   -24563.932   -25743.338    480.56877     586.0575    242.21674    613.43205    41.497236    41.497236    82.994473 
   21900    1143.8515   -24564.056   -25746.744    273.06779    126.90327    605.14374    87.156361    41.497603    41.497603    82.995206 
   22000    1159.7554   -24564.157   -25763.288   -89.495509   -30.301689    90.520645   -328.70548    41.498532    41.498532    82.997063 
   22100    1156.4713   -24564.306   -25760.041   -148.81977    400.33659   -373.00999   -473.78591    41.499268    41.499268    82.998535 
   22200    1156.8405   -24564.465   -25760.583   -196.08226   -424.62981    40.859147   -204.47612    41.499953    41.499953    82.999905 
   22300    1168.7306   -24564.635   -25773.046   -484.85492   -1301.7188   -103.32453   -49.521481    41.500281    41.500281    83.000561 
   22400    1145.1776    -24564.81   -25748.869   -66.027338   -33.311733    340.97289   -505.74317    41.500187    41.500187    83.000374 
   22500    1143.5373   -24564.883   -25747.246    88.201828   -214.33754    40.153286    438.78974    41.499956    41.499956    82.999911 
   22600    1144.9723   -24564.973   -25748.819    205.74937    110.16745     462.8019    44.278774    41.499447    41.499447    82.998893 
   22700    1159.4516   -24565.069   -25763.887   -282.68315   -746.14182   -311.13843    209.23081    41.499059    41.499059    82.998118 
   22800    1154.2986    -24565.17   -25758.659   -123.02781    50.147141    -92.42182   -326.80875    41.498398    41.498398    82.996796 
   22900    1144.1242    -24565.28   -25748.249    151.01062     292.2895    325.18298   -164.44061    41.497624    41.497624    82.995249 
   23000     1130.333   -24565.351   -25734.061    465.32712    318.82685    59.945655    1017.2089    41.497238    41.497238    82.994476 
   23100    1153.7532    -24565.32   -25758.246   -87.283477   -175.56092   -52.083917   -34.205594    41.497587    41.497587    82.995173 
   23200    1158.9404   -24565.263   -25763.551    -380.1612   -462.03467    203.28609   -881.73502    41.498127    41.498127    82.996254 
   23300    1144.5153   -24565.192   -25748.566    109.60632    78.453392    586.72608   -336.36052    41.498632    41.498632    82.997264 
   23400    1141.6085   -24565.101    -25745.47    174.95906    1031.9266   -448.17387   -58.875494    41.499088    41.499088    82.998176 
   23500     1130.226   -24565.057   -25733.657    404.34576    352.60503    377.32833    483.10393    41.499225    41.499225    82.998451 
   23600    1139.2046    -24564.88   -25742.763    242.20743    773.49162   -113.06936    66.200022    41.500317    41.500317    83.000634 
   23700    1144.5973   -24564.722   -25748.181    80.937115     303.1329   -13.833877   -46.487672    41.501341    41.501341    83.002683 
   23800    1141.9556   -24564.566   -25745.293     41.86829    575.29732   -570.88228    121.18983    41.502268    41.502268    83.004536 
   23900    1159.6217   -24564.299   -25763.292   -396.45901   -87.527073   -923.30157    -178.5484    41.503423    41.503423    83.006846 
   24000    1127.9065   -24564.048   -25730.249    333.99599    305.97995    41.236486    654.77153    41.503704    41.503704    83.007408 
   24100    1156.6837   -24563.727   -25759.682   -404.16009   -554.19368    53.927514    -712.2141    41.503675    41.503675     83.00735 
   24200    1144.8129   -24563.471   -25747.153    18.430949    222.61013   -3.4028976   -163.91438    41.502607    41.502607    83.005214 
   24300    1152.9866   -24563.167     -25755.3   -87.674692     423.5391   -1122.3066    435.74342    41.501712    41.501712    83.003423 
   24400    1153.5374   -24562.966   -25755.669   -22.313327   -460.41723   -221.40088    614.87813    41.500478    41.500478    83.000955 
   24500    1153.7105   -24562.868   -25755.749     76.61509    389.15531 -0.082909179   -159.22713    41.499155    41.499155     82.99831 
   24600    1149.0147   -24562.882   -25750.908    286.78103    236.31618    776.11903   -152.09212    41.498283    41.498283    82.996566 
   24700    1155.3206   -24562.942   -25757.488    50.709264    207.86129    53.083714   -108.81721    41.498251    41.498251    82.996502 
   24800    1141.8889   -24562.963   -25743.621    342.44102    394.43827    805.33116   -172.44636    41.499043    41.499043    82.998086 
   24900    1155.0351   -24562.966   -25757.217    -257.7694   -859.18835   -497.78165     583.6618    41.500444    41.500444    83.000889 
   25000    1142.2239   -24563.041   -25744.046    158.21701    628.01509   -516.20754    362.84346    41.501089    41.501089    83.002179 
   25100    1149.5596   -24563.039   -25751.628   -54.922591   -675.70901    66.630178    444.31106    41.501689    41.501689    83.003378 
   25200    1152.1704   -24563.053   -25754.342    -123.9904   -729.09755    110.41986     246.7065    41.501748    41.501748    83.003496 
   25300    1147.0411   -24563.175    -25749.16    68.061276    379.62992   -740.20089     564.7548    41.500761    41.500761    83.001522 
   25400    1143.0124   -24563.222   -25745.042    176.02231    455.98494   -678.07625    750.15825    41.499892    41.499892    82.999784 
   25500    1159.5841    -24563.16   -25762.114   -220.24649    40.260978   -430.42742   -270.57302    41.499768    41.499768    82.999536 
   25600     1130.943   -24563.075   -25732.416    525.30621    845.96632   -107.07663    837.02894    41.499835    41.499835     82.99967 
   25700    1160.8248   -24562.923    -25763.16   -260.07308    -214.8849     -47.2528   -518.08154    41.500507    41.500507    83.001014 
   25800    1152.6522    -24562.79   -25754.577   -90.367903   -254.72236   -499.80685     483.4255    41.501206    41.501206    83.002413 
   25900    1151.6523   -24562.685   -25753.438   -187.15923   -426.34699   -43.569712   -91.560996    41.501795    41.501795     83.00359 
   26000    1146.6076   -24562.584   -25748.121    48.607969    308.95826   -200.43476    37.300403    41.501962    41.501962    83.003924 
   26100    1160.9082   -24562.508   -25762.831   -378.51818   -699.92184    34.527483   -470.16018    41.501754    41.501754    83.003507 
   26200    1155.3881   -24562.441   -25757.057    -221.9744   -264.53105   -219.91569   -181.47647    41.500998    41.500998    83.001995 
   26300    1151.6176   -24562.353    -25753.07    39.934082   -307.76901    411.85231    15.718945    41.500292    41.500292    83.000584 
   26400    1150.9086   -24562.316     -25752.3   -101.07976   -489.45874    360.18126   -173.96179    41.499581    41.499581    82.999162 
   26500    1155.7237   -24562.327   -25757.289   -56.375185    128.75822   -335.24808    37.364302    41.498684    41.498684    82.997369 
   26600    1147.6874   -24562.484   -25749.138    108.92962    705.07092   -38.540567   -339.74148    41.497277    41.497277    82.994555 
   26700    1148.1393   -24562.596   -25749.717    164.81135   -336.20717    334.19176    496.44946    41.496487    41.496487    82.992974 
   26800    1155.7469    -24562.65   -25757.637    128.50977    144.65066   -242.98816    483.86683    41.496869    41.496869    82.993737 
   26900    1167.8148   -24562.716    -25770.18   -341.69227   -594.00831      187.263    -618.3315    41.498194    41.498194    82.996389 
   27000    1152.5473   -24562.882    -25754.56    136.05501   -744.46005    505.72943    646.89566    41.499201    41.499201    82.998403 
   27100    1157.5503   -24563.016   -25759.867   -104.99371    621.66779   -392.36695   -544.28197    41.500452    41.500452    83.000905 
   27200    1160.9336   -24563.212   -25763.562   -257.40182   -236.35095   -371.63199   -164.22252    41.501152    41.501152    83.002304 
   27300    1156.4109   -24563.425   -25759.099   -118.03053    60.151777   -559.78943    145.54607    41.501575    41.501575     83.00315 
   27400    1151.9229   -24563.658   -25754.691   -150.98366   -509.48114    22.415984    34.114179    41.501383    41.501383    83.002766 
   27500     1146.969   -24563.857   -25749.768   -49.177726   -353.03363    -58.51126    264.01171     41.50092     41.50092    83.001841 
   27600    1154.9358   -24563.985   -25758.134   -149.00005    550.63872    26.784063   -1024.4229    41.500475    41.500475    83.000951 
   27700    1149.1005   -24564.078   -25752.192   -53.083852    704.51785   -167.94624   -695.82317    41.500147    41.500147    83.000294 
   27800    1141.5232   -24564.107   -25744.387    111.41071    230.34763    347.25932   -243.37483    41.500091    41.500091    83.000181 
   27900    1165.4186   -24564.002   -25768.989   -478.55134   -959.10523   -569.92505    93.376271    41.500732    41.500732    83.001464 
   28000    1152.3127     -24563.9   -25755.336   -161.06541   -243.00897    10.716687   -250.90395    41.501177    41.501177    83.002355 
   28100    1149.4994   -24563.769   -25752.296    2.5777553   -118.21196    135.64283   -9.6976086    41.501739    41.501739    83.003478 
   28200    1152.8276   -24563.588   -25755.556   -28.071428   -179.86731   -319.71021    415.36324    41.502422    41.502422    83.004844 
   28300    1141.8769   -24563.415    -25744.06    70.608751    523.62414   -131.34719    -180.4507    41.502948    41.502948    83.005896 
   28400    1121.3758   -24563.166   -25722.615    632.10512     128.2525    805.18816     962.8747    41.503471    41.503471    83.006942 
   28500    1161.4989   -24562.864   -25763.798   -414.24031   -241.93841   -842.75207   -158.03044    41.504095    41.504095    83.008191 
   28600     1152.802   -24562.662   -25754.603   -194.81011   -642.09293    95.581192   -37.918579    41.503688    41.503688    83.007377 
   28700    1152.2207   -24562.557   -25753.898    -271.4164    -470.6333   -516.63492    173.01901    41.502514    41.502514    83.005027 
   28800    1158.6832   -24562.485   -25760.508   -194.95115    163.98052   -56.511203   -692.32277    41.500747    41.500747    83.001495 
   28900    1159.6044   -24562.363   -25761.338   -147.22201    -584.6841    113.00635    30.011723    41.499477    41.499477    82.998954 
   29000    1149.3503   -24562.285   -25750.658    205.62114    210.80701    242.86096    163.19545    41.498511    41.498511    82.997021 
   29100    1154.2161   -24562.293   -25755.697   -8.1657894   -21.258925   -44.320432    41.081989     41.49789     41.49789     82.99578 
   29200    1152.5649   -24562.342   -25754.039    94.335451   -664.15402    763.00879    184.15158    41.497654    41.497654    82.995309 
   29300    1140.2503   -24562.456    -25741.42    479.12353    709.78301     679.9441    47.643478    41.497785    41.497785     82.99557 
   29400    1135.0445   -24562.567   -25736.149    512.90146    71.394901    902.13868     565.1708    41.498606    41.498606    82.997212 
   29500    1149.6673   -24562.559    -25751.26     230.8436    406.73606    159.70341    126.09133    41.500536    41.500536    83.001072 
   29600    1154.8533   -24562.523   -25756.586   -297.60326   -418.02898     8.279886   -483.06069    41.502809    41.502809    83.005619 
   29700    1144.7478   -24562.416    -25746.03    -60.89072    551.82914   -538.92641   -195.57489    41.504701    41.504701    83.009403 
   29800    1138.0363   -24562.308   -25738.983    140.75643    370.84798    71.988726   -20.567407    41.505873    41.505873    83.011745 
   29900    1145.0049   -24562.198   -25746.078   -97.164838    609.41601   -170.90322    -730.0073    41.506266    41.506266    83.012532 
   30000    1144.9223    -24562.18   -25745.974   -202.43759    54.337876   -508.74728   -152.90335    41.505196    41.505196    83.010392 
   30100    1137.0022   -24562.181   -25737.787    187.44651    678.21987   -264.18719    148.30685    41.503178    41.503178    83.006356 
   30200    1147.7664   -24562.164   -25748.899    14.992162   -133.80684    4.0916697    174.69165    41.500994    41.500994    83.001988 
   30300    1153.3472   -24562.184    -25754.69    11.725794    205.20096   -294.37215    124.34858    41.498626    41.498626    82.997251 
   30400    1150.5158   -24562.202    -25751.78    11.529718    399.25952    869.99432   -1234.6647    41.496891    41.496891    82.993782 
   30500     1145.821   -24562.109   -25746.833    408.20161    899.23414    113.72463    211.64607    41.496666    41.496666    82.993331 
   30600    1155.0264   -24561.951   -25756.193   -8.4756843   -240.48382    315.18116   -100.12439    41.497994    41.497994    82.995988 
   30700    1149.7835   -24561.858   -25750.679    30.234251    101.96106    535.76041   -547.01873    41.499646    41.499646    82.999292 
   30800    1160.6464    -24561.86   -25761.912    -232.5419   -313.83949   -820.78125    436.99504    41.501174    41.501174    83.002349 
   30900    1151.2373   -24561.955   -25752.279    12.592441   -18.745062   -78.130333    134.65272    41.502047    41.502047    83.004093 
   31000    1146.9462   -24562.104   -25747.991    155.52894    747.44656   -105.89766   -174.96209    41.502458    41.502458    83.004915 
   31100    1151.5286   -24562.257   -25752.882   -113.22995    83.613164   -580.63993    157.33692    41.502976    41.502976    83.005953 
   31200    1155.9944   -24562.481   -25757.724   -277.20451   -12.038923   -555.45901    -264.1156    41.502652    41.502652    83.005305 
   31300    1143.9353   -24562.749   -25745.523    267.85067    796.18679   -23.001044    30.366276    41.501521    41.501521    83.003042 
   31400    1148.0462    -24563.01   -25750.035   -72.082917   -425.10653   -98.663557    307.52134    41.500454    41.500454    83.000909 
   31500    1152.1044   -24563.187   -25754.407   -99.432151    296.69804    -199.8942    -395.1003    41.499668    41.499668    82.999336 
   31600    1155.4853   -24563.331   -25758.047    56.889022    411.91476   -405.13973    163.89204    41.498912    41.498912    82.997825 
   31700    1143.5636   -24563.475   -25745.865    331.32235    81.145618    95.806915    817.01453    41.498241    41.498241    82.996482 
   31800    1153.3266   -24563.606   -25756.091   -56.231444   -468.91619    286.59449    13.627369     41.49824     41.49824    82.996481 
   31900    1163.2049   -24563.707   -25766.405    -308.7129    219.72359    110.65004   -1256.5123    41.498788    41.498788    82.997575 
   32000    1141.6498   -24563.883   -25744.294    331.39375    228.44299     710.5652     55.17305    41.499121    41.499121    82.998242 
   32100    1148.9291   -24564.109   -25752.047   -11.344534     522.1201    63.572627   -619.72633    41.499346    41.499346    82.998692 
   32200    1149.8843   -24564.304   -25753.229   -74.369162    46.718632   -1.5152417   -268.31087     41.49933     41.49933    82.998661 
   32300     1145.822   -24564.532   -25749.257    52.424119   -237.76624     96.27138    298.76721    41.498662    41.498662    82.997325 
   32400    1165.0556   -24564.678    -25769.29   -323.99548    124.71138   -377.56063   -719.13718     41.49819     41.49819     82.99638 
   32500     1129.255   -24564.798   -25732.393    594.10758    3.3092472    771.97821    1007.0353    41.497914    41.497914    82.995829 
   32600    1146.4889   -24564.789   -25750.204    45.165875     748.9005  -0.33831473   -613.06456    41.498828    41.498828    82.997656 
   32700    1147.0658   -24564.767   -25750.778    108.00037    371.96985    -109.8651    61.896371     41.49972     41.49972     82.99944 
   32800    1150.5479   -24564.743   -25754.355    83.145989    779.87416    190.08823   -720.52442     41.50054     41.50054    83.001081 
   32900    1154.3017   -24564.733   -25758.226   -255.71996   -664.54791   -107.95871    5.3467435    41.501222    41.501222    83.002444 
   33000    1152.3651   -24564.775   -25756.265   -183.15775    431.57572   -460.41785   -520.63112    41.501181    41.501181    83.002363 
   33100    1141.3083   -24564.875   -25744.933    108.55232    490.56224   -126.87392    -38.03136    41.500438    41.500438    83.000875 
   33200    1166.8275   -24564.959   -25771.402   -422.40196   -455.80149   -425.68591   -385.71847    41.499437    41.499437    82.998875 
   33300    1128.6513   -24565.005   -25731.976    564.76472    594.81697    465.99478     633.4824    41.498485    41.498485    82.996971 
   33400    1152.2871    -24564.98    -25756.39    8.9080462   -567.48324    362.17177    232.03561    41.498362    41.498362    82.996724 
   33500    1152.3799   -24564.961   -25756.467   -68.994631     328.5595   -389.12797   -146.41543    41.498469    41.498469    82.996938 
   33600     1156.023       -24565   -25760.272   -185.84767    69.614959   -687.00112    59.843152    41.498452    41.498452    82.996904 
   33700    1139.7825   -24565.047   -25743.527    257.86825   -212.67623     629.1106     357.1704    41.498341    41.498341    82.996681 
   33800    1144.1266   -24565.139   -25748.111    199.27771    88.860823    310.65865    198.31366    41.498085    41.498085    82.996171 
   33900    1138.9273   -24565.202   -25742.798    341.80709    703.68542    416.07777   -94.341931    41.498248    41.498248    82.996496 
   34000    1164.3461   -24565.177   -25769.055   -308.08301   -752.40846    65.067621   -236.90818    41.498934    41.498934    82.997869 
   34100    1157.8407   -24565.168    -25762.32   -311.18497    -270.0515   -303.49361   -360.00979    41.499175    41.499175    82.998351 
   34200    1163.0121   -24565.119   -25767.618   -272.75236   -398.21581   -208.88444   -211.15683    41.499427    41.499427    82.998853 
   34300    1148.5518   -24565.147   -25752.694   -8.4223566    92.422078    -452.2884    334.59925    41.499258    41.499258    82.998516 
   34400    1143.9969   -24565.185   -25748.023    103.81189    281.72097   -213.44833    243.16303    41.498898    41.498898    82.997797 
   34500    1138.1961   -24565.128   -25741.968    250.90302   -185.15788    1116.9472   -179.08031    41.499105    41.499105     82.99821 
   34600    1149.1256   -24565.075   -25753.215    138.95173    371.46053   -418.00915     463.4038    41.499492    41.499492    82.998984 
   34700    1154.8275   -24564.989   -25759.025   -71.445877    144.75667    372.23472   -731.32902    41.500223    41.500223    83.000445 
   34800    1141.4076   -24564.899    -25745.06    262.67632    1519.7157   -569.44091   -162.24582    41.501301    41.501301    83.002602 
   34900    1153.1036   -24564.847   -25757.101   -219.77008    128.14345   -194.80835   -592.64533    41.502074    41.502074    83.004148 
   35000    1131.6434   -24564.869   -25734.934    278.58519    184.31111     165.2595    486.18496    41.501882    41.501882    83.003763 
   35100    1152.4025   -24564.751    -25756.28   -233.26739    261.84837   -439.94217   -521.70838    41.502247    41.502247    83.004495 
   35200    1164.7014   -24564.666   -25768.912   -544.07284   -251.94048   -931.43724   -448.84081    41.501893    41.501893    83.003785 
   35300    1144.4078   -24564.619   -25747.882    93.770558    220.95089   -362.76623    423.12702    41.500809    41.500809    83.001619 
   35400    1152.0759   -24564.566   -25755.757   -120.81223    528.78288   -125.47167   -765.74789     41.49976     41.49976    82.999519 
   35500    1145.5081   -24564.451   -25748.851    202.35357   -10.241608    211.11719    406.18511    41.498915    41.498915     82.99783 
   35600    1148.0274   -24564.297   -25751.302    42.629164    136.44061    278.27209   -286.82521    41.498556    41.498556    82.997111 
   35700     1144.427   -24564.102   -25747.385    275.57511     271.4433   -69.623131    624.90516    41.498598    41.498598    82.997196 
   35800    1157.4007   -24563.928   -25760.625   -170.92117    41.883529   -349.27815   -205.36889    41.499172    41.499172    82.998343 
   35900    1154.1377   -24563.876   -25757.199   -13.936184   -312.97904    200.50813    70.662357    41.499366    41.499366    82.998732 
   36000    1159.6212   -24563.902   -25762.895    -121.9242   -476.17199   -168.85842     279.2578    41.499328    41.499328    82.998655 
   36100    1158.6265   -24563.876   -25761.841   -198.88806   -319.15307    176.14025   -453.65136    41.499758    41.499758    82.999516 
   36200    1154.6673   -24563.855   -25757.725     -36.2292   -314.73616    53.262118    152.78644    41.500266    41.500266    83.000531 
   36300    1137.5865   -24563.841   -25740.051     287.6956    26.348543    565.09606    271.64219    41.500693    41.500693    83.001387 
   36400    1150.1132    -24563.82   -25752.981    14.770967   -59.873304   -174.63184    278.81805    41.501124    41.501124    83.002248 
   36500    1147.4831   -24563.804   -25750.246    81.839836   -469.38655    177.01524    537.89082    41.501546    41.501546    83.003091 
   36600    1165.6428   -24563.792    -25769.01    -433.9274   -373.19992   -292.19885   -636.38341    41.501784    41.501784    83.003567 
   36700    1144.5179   -24563.853   -25747.229    234.62563     584.3874    -246.3385    365.82798    41.501008    41.501008    83.002017 
   36800     1135.504   -24563.892   -25737.949    270.97641    370.76774      485.162   -43.000523    41.500501    41.500501    83.001001 
   36900    1152.4783   -24563.828   -25755.436   -198.16343   -396.78042   -57.832728   -139.87715    41.500478    41.500478    83.000956 
   37000    1155.1808   -24563.778    -25758.18   -74.699633    398.38877   -308.33898   -314.14869    41.500008    41.500008    83.000015 
   37100    1148.8817   -24563.712     -25751.6   -3.7684977   -98.320752    297.00585   -209.99059    41.499738    41.499738    82.999476 
   37200    1152.1156   -24563.688    -25754.92     52.89223    3.2674729    246.99061   -91.581391    41.499361    41.499361    82.998721 
   37300    1158.2614   -24563.609   -25761.196   -100.88707    95.774876     251.4508   -649.88689    41.499842    41.499842    82.999683 
   37400    1148.6509    -24563.57    -25751.22   -93.870312   -399.94013    90.329972    27.999227    41.500486    41.500486    83.000973 
   37500    1151.5681   -24563.538   -25754.204    25.086013    550.63821   -106.43274   -368.94743    41.500809    41.500809    83.001619 
   37600    1148.2968   -24563.529   -25750.812    -69.37905   -295.62996   -424.84922    512.34202    41.501132    41.501132    83.002263 
   37700    1148.4296   -24563.352   -25750.773    7.6969414    345.07207   -262.03448   -59.946767    41.502073    41.502073    83.004146 
   37800    1159.3565   -24563.172   -25761.891   -247.73539    32.291169    338.98401   -1114.4813    41.502764    41.502764    83.005527 
   37900    1161.4259   -24562.963   -25763.821   -412.34959   -667.74239    133.97918   -703.28556    41.503276    41.503276    83.006553 
   38000    1159.1444   -24562.765   -25761.265   -396.63132   -198.87189   -435.70246   -555.31961    41.503458    41.503458    83.006916 
   38100    1141.0001   -24562.685   -25742.425    107.18669   -227.88748   -404.65537    954.10294    41.502688    41.502688    83.005377 
   38200    1147.5981   -24562.662   -25749.224    77.956093   -86.629183     192.3937    128.10376    41.501298    41.501298    83.002595 
   38300    1140.5463   -24562.612   -25741.882    372.53027    331.23683    737.03603    49.317958    41.499986    41.499986    82.999973 
   38400    1147.0879   -24562.515   -25748.549     124.1114   -150.90583    633.73749   -110.49745     41.49967     41.49967     82.99934 
   38500    1137.3315   -24562.471   -25738.417    444.56495    254.95548    3.6415725    1075.0978    41.499567    41.499567    82.999135 
   38600      1166.65    -24562.41    -25768.67   -470.19495   -334.42841   -400.97537   -675.18107    41.500129    41.500129    83.000257 
   38700    1158.0687   -24562.388   -25759.775   -117.03027   -399.18201   -490.79736    538.88855    41.500516    41.500516    83.001031 
   38800    1134.6144    -24562.33   -25735.467    415.46474    387.96137    29.208737    829.22413    41.501474    41.501474    83.002948 
   38900    1150.2613   -24562.263   -25751.578   -42.730643    220.35071   -444.21644    95.673803    41.502679    41.502679    83.005358 
   39000    1149.3754   -24562.226   -25750.625     -27.5367    145.58693   -66.143378   -162.05365    41.503368    41.503368    83.006736 
   39100    1148.7069   -24562.183    -25749.89   -104.67311     317.8271   -381.07624    -250.7702    41.503703    41.503703    83.007406 
   39200    1128.7911   -24562.147   -25729.262    440.17305    1133.0212   -138.86426    326.36224    41.503392    41.503392    83.006784 
   39300    1163.3647   -24562.066   -25764.929   -494.14575   -48.594274    -979.8859   -453.95706     41.50297     41.50297     83.00594 
   39400    1144.2104   -24562.118   -25745.176    209.57945   -217.29316    116.64708    729.38444    41.501184    41.501184    83.002368 
   39500    1137.0856    -24562.21   -25737.902    440.51717    503.06425    610.46134    208.02593    41.499209    41.499209    82.998418 
   39600    1135.9345   -24562.303   -25736.805    431.73539    516.03831    832.82829   -53.660427     41.49762     41.49762    82.995239 
   39700    1149.6168   -24562.427   -25751.076    315.94006    429.01132    268.79863    250.01023    41.496416    41.496416    82.992831 
   39800    1148.5579    -24562.59   -25750.144     313.1547   -30.477813     116.4811    853.46082    41.496069    41.496069    82.992137 
   39900    1148.7424   -24562.725   -25750.469    237.62597   -107.41396    127.97215    692.31971    41.497062    41.497062    82.994123 
   40000    1145.8913   -24562.862   -25747.659    103.90349    19.861536    408.55196   -116.70303    41.498574    41.498574    82.997147 
   40100    1159.1823   -24563.034   -25761.573   -304.81512   -340.16293   -75.976209   -498.30623    41.499744    41.499744    82.999488 
   40200    1157.3275   -24563.253   -25759.874   -216.83882   -888.98527    802.11604   -563.64724    41.500074    41.500074    83.000147 
   40300    1158.4726   -24563.487   -25761.292   -172.44689   -364.87722   -472.89118    320.42774    41.500082    41.500082    83.000164 
   40400    1152.5187   -24563.754   -25755.402   -12.642194   -87.209329    -174.0656    223.34835    41.499613    41.499613    82.999227 
   40500    1142.8369   -24563.996   -25745.635    72.081296   -120.16988   -112.38897    448.80274    41.499205    41.499205     82.99841 
   40600    1144.0899   -24564.223   -25747.157    96.224379      458.198    141.08486   -310.60972    41.498705    41.498705     82.99741 
   40700    1150.3858   -24564.434   -25753.877    30.278879    465.84426   -297.73614   -77.271478    41.498322    41.498322    82.996644 
   40800     1141.552   -24564.619   -25744.928    316.08501    527.04628    66.305151    354.90359    41.498359    41.498359    82.996719 
   40900    1141.2329   -24564.743   -25744.723    381.52778    1336.6553   -303.04727    110.97528    41.499015    41.499015    82.998031 
   41000    1157.1707   -24564.796   -25761.254   -327.42996    133.88357    -880.8693   -235.30416    41.500491    41.500491    83.000983 
   41100    1130.3321   -24564.938   -25733.647    356.00564    775.04942    404.72937   -111.76187    41.500838    41.500838    83.001676 
   41200    1159.2035   -24564.869   -25763.429   -348.46544   -49.942872   -338.16066   -657.29279    41.501998    41.501998    83.003995 
   41300    1152.1489   -24564.728   -25755.994   -197.52556    378.64304   -795.33928   -175.88045    41.503138    41.503138    83.006276 
   41400    1152.4239   -24564.598   -25756.149   -393.87591    76.808469   -390.07594   -868.36026    41.503494    41.503494    83.006988 
   41500     1151.039   -24564.531    -25754.65   -107.96504    147.94835   -392.79839   -79.045069    41.502571    41.502571    83.005141 
   41600    1140.6995   -24564.506   -25743.934     174.1534    599.18015    125.22127   -201.94121    41.500957    41.500957    83.001914 
   41700    1150.6232   -24564.431    -25754.12    24.347815   -434.33027   -76.595118    583.96883    41.499505    41.499505     82.99901 
   41800    1146.1061   -24564.364   -25749.382    190.26703    105.31049    480.84013   -15.349528    41.498156    41.498156    82.996313 
   41900    1160.1209   -24564.221    -25763.73   -106.68145   -30.994123   -118.30653   -170.74371    41.497668    41.497668    82.995337 
   42000    1160.0423   -24564.156   -25763.584    -205.7247   -489.28521    184.22294   -312.11184    41.497571    41.497571    82.995141 
   42100    1144.6754   -24564.194   -25747.734    216.50171   -94.943687    192.43806    552.01075    41.497513    41.497513    82.995026 
   42200    1150.0163   -24564.233   -25753.294    85.219391   -237.44827    360.64581    132.46064    41.497986    41.497986    82.995972 
   42300    1142.1989   -24564.279   -25745.258    160.35056   -191.29142   -139.85783    812.20093     41.49896     41.49896    82.997919 
   42400     1146.662   -24564.343   -25749.936   -27.159669   -356.61507     59.94033    215.19573    41.500197    41.500197    83.000394 
   42500    1136.0092   -24564.353   -25738.932    276.54396     193.2782   -370.54956    1006.9032     41.50138     41.50138    83.002759 
   42600    1151.8893   -24564.323   -25755.322    -225.0329   -589.37585    361.57567   -447.29851    41.502385    41.502385    83.004771 
   42700    1134.1802   -24564.329   -25737.017    323.60284    46.690082    279.36939    644.74903    41.502313    41.502313    83.004626 
   42800    1147.7497   -24564.347   -25751.065   -15.684307   -303.81186   -33.446935    290.20587    41.502056    41.502056    83.004111 
   42900    1153.2166   -24564.385   -25756.755   -125.36691   -380.80087    45.223687   -40.523549    41.501184    41.501184    83.002369 
   43000    1143.5077   -24564.522   -25746.854    173.82027    86.947406   -15.414358    449.92777    41.499474    41.499474    82.998949 
   43100    1153.4193   -24564.616   -25757.196   -35.963075   -355.45284   -534.11858     781.6822    41.497759    41.497759    82.995518 
   43200    1153.8733   -24564.679   -25757.729    91.164028    360.54027   -424.72751    337.67932    41.496244    41.496244    82.992487 
   43300     1149.211   -24564.739   -25752.968    244.41821   -77.235519    154.90567    655.58447    41.495276    41.495276    82.990553 
   43400    1169.5331   -24564.759       -25774   -379.07889   -261.20417   -239.81451   -636.21799    41.495512    41.495512    82.991024 
   43500    1155.9355   -24564.937   -25760.118   -25.571238   -397.33085    177.13498    143.48216    41.495475    41.495475    82.990949 
   43600    1142.3713   -24565.157   -25746.313     390.8679    940.30444   -228.50799    460.80723    41.495703    41.495703    82.991406 
   43700    1156.8036   -24565.395   -25761.474    58.932485   -31.488459   -264.90607    473.19199    41.496602    41.496602    82.993204 
   43800    1157.2194   -24565.649   -25762.158   -210.57788    518.03931   -16.483472   -1133.2895    41.497966    41.497966    82.995933 
   43900    1143.3476   -24565.886   -25748.053    94.855202   -174.20381   -141.65654    600.42596    41.499144    41.499144    82.998289 
   44000    1159.3272   -24566.119   -25764.808   -234.23801   -531.01181    -204.2621     32.55988    41.499912    41.499912    82.999824 
   44100    1143.6713    -24566.34   -25748.841   -24.983135    239.65346    -504.0736    189.47074    41.500241    41.500241    83.000482 
   44200    1144.6122   -24566.486    -25749.96    146.06208    613.98506   -382.97269    207.17387    41.500231    41.500231    83.000463 
   44300    1141.9445   -24566.643   -25747.358    76.836703   -573.99649    660.61213    143.89447     41.49982     41.49982     82.99964 
   44400    1136.4271    -24566.77   -25741.781    305.26338    82.939933    368.11021    464.73999    41.499259    41.499259    82.998519 
   44500    1156.7136   -24566.869   -25762.855   -109.83018    325.65796    -283.8769   -371.27159    41.498635    41.498635    82.997269 
   44600    1145.0845   -24567.086   -25751.048    187.25244   -365.80552    534.58505    392.97777    41.497315    41.497315    82.994629 
   44700    1160.9158   -24567.301   -25767.632   -366.14811   -841.30485   -104.47326   -152.66623    41.496154    41.496154    82.992309 
   44800    1141.7054   -24567.503   -25747.972    423.66398    510.04529    602.44902    158.49764     41.49499     41.49499     82.98998 
   44900    1151.6362   -24567.646   -25758.382    110.91097   -351.99075    707.64035   -22.916677    41.494798    41.494798    82.989595 
   45000    1137.2169   -24567.848   -25743.676    482.54741     283.2405   -52.408898    1216.8106    41.494904    41.494904    82.989808 
   45100    1138.6867    -24568.04   -25745.387     449.4138    498.67735    789.52764    60.036427    41.495787    41.495787    82.991574 
   45200    1152.0431   -24568.114   -25759.271   -37.226187    125.37514   -452.26064    215.20693    41.497909    41.497909    82.995818 
   45300    1138.4337   -24568.193   -25745.278    276.85806     1060.312   -475.88179    246.14398    41.500035    41.500035    83.000071 
   45400    1162.9699   -24568.189   -25770.643   -553.07357   -331.39853   -971.01894   -356.80324    41.502118    41.502118    83.004235 
   45500     1171.731     -24568.2   -25779.713   -729.89494   -732.99356   -1016.5162   -440.17507    41.503167    41.503167    83.006334 
   45600    1144.0093   -24568.296   -25751.147   -20.196137    292.42488   -453.39187    100.37858    41.502685    41.502685     83.00537 
   45700    1149.7576   -24568.335   -25757.129     -246.745    206.15717   -918.26257   -28.129618     41.50152     41.50152     83.00304 
   45800    1149.9113    -24568.36   -25757.313    -142.2405   -558.23887    8.4628931    123.05447    41.499479    41.499479    82.998958 
   45900    1150.6046    -24568.35    -25758.02     69.03995   -442.67547    695.09243   -45.297114     41.49727     41.49727    82.994539 
   46000    1153.9606    -24568.34    -25761.48    65.336337     152.0926    -288.6977    332.61411    41.495177    41.495177    82.990353 
   46100     1150.824   -24568.359   -25758.255    47.826379    5.0151817   -54.197508    192.66146    41.493658    41.493658    82.987316 
   46200     1135.287   -24568.388    -25742.22    589.39033    468.06573    693.80797    606.29731    41.492626    41.492626    82.985251 
   46300    1157.9579   -24568.307    -25765.58    88.925538    168.39686    106.70916   -8.3294086    41.493406    41.493406    82.986813 
   46400    1139.3907    -24568.33   -25746.406    459.86811    289.36127   -256.95466    1347.1977    41.494463    41.494463    82.988925 
   46500     1141.118    -24568.29   -25748.151    407.35161    368.13896    -183.8964    1037.8123     41.49658     41.49658    82.993161 
   46600    1153.4726   -24568.209   -25760.844   -187.05202     320.5498   -525.33722   -356.36863    41.499474    41.499474    82.998948 
   46700    1154.1822   -24568.079   -25761.448     -248.462    227.14478   -130.51803   -842.01276    41.501899    41.501899    83.003799 
   46800     1141.472   -24568.047   -25748.274    31.613801   -245.63964    348.65826    -8.177225    41.502785    41.502785     83.00557 
   46900    1155.6536   -24567.937   -25762.827   -381.76261   -321.26592   -103.95903   -720.06288    41.503276    41.503276    83.006553 
   47000    1153.2599   -24567.812   -25760.227   -341.58591   -483.30945   -367.80931   -173.63898    41.502723    41.502723    83.005446 
   47100      1145.29    -24567.67   -25751.845   -39.479122   -210.39462    170.83447   -78.877213    41.501142    41.501142    83.002283 
   47200    1153.5272   -24567.593   -25760.285   -112.54209    381.73709   -710.30807   -9.0552876    41.498684    41.498684    82.997367 
   47300    1142.6703   -24567.519   -25748.985    242.58714     36.75222    322.79241    368.21678    41.496207    41.496207    82.992414 
   47400    1150.5369   -24567.337   -25756.937    161.10102   -66.851254    527.45301    22.701303    41.494878    41.494878    82.989756 
   47500    1139.3359   -24567.237   -25745.255    543.77094    859.86208    811.99373      -40.543    41.493983    41.493983    82.987966 
   47600    1136.3769   -24567.044   -25742.003    486.36112    208.69511    804.74569    445.64255    41.494602    41.494602    82.989204 
   47700    1152.7312   -24566.831     -25758.7    81.072414   -132.94892    305.08973    71.076429    41.496179    41.496179    82.992357 
   47800    1150.9245   -24566.726   -25756.726   -57.424667    353.89878   -128.74009   -397.43269    41.497848    41.497848    82.995696 
   47900    1149.8633   -24566.564   -25755.468   -51.988335   -685.82211    806.11436   -276.25725    41.500011    41.500011    83.000021 
   48000    1143.8698   -24566.337   -25749.043 -0.0081904304   -370.61084    6.4706326    364.11564    41.502219    41.502219    83.004437 
   48100     1144.349    -24566.04   -25749.242   -64.406438   -745.74835    606.56213   -54.033088    41.503923    41.503923    83.007846 
   48200    1154.4062    -24565.74    -25759.34   -153.96167    121.54423    -100.2247   -483.20454    41.504924    41.504924    83.009848 
   48300    1150.1339   -24565.471   -25754.654   -304.22912   -523.52832   -665.32437    276.16533      41.5049      41.5049    83.009799 
   48400    1142.2706    -24565.29   -25746.343    1.7448899   -479.69025   -79.749702    564.67462    41.502831    41.502831    83.005662 
   48500    1136.0422   -24565.112   -25739.725    306.36468    633.31986   -740.29317    1026.0674    41.500017    41.500017    83.000034 
   48600    1142.8955   -24564.819   -25746.518    293.41675   -206.25423     846.0673    240.43717    41.497934    41.497934    82.995869 
   48700    1149.0233   -24564.524   -25752.559    142.25765    781.26008   -839.31056    484.82342    41.496456    41.496456    82.992912 
   48800    1154.3648   -24564.336   -25757.893   -45.813122    432.90457   -185.11437   -385.22956    41.495514    41.495514    82.991029 
   48900    1138.7726   -24564.148   -25741.584    460.40294    561.41585    361.17842    458.61455    41.495468    41.495468    82.990937 
   49000    1148.8002    -24563.91   -25751.714    203.98784   -98.045953    623.90058    86.108899    41.496836    41.496836    82.993673 
   49100    1150.8428   -24563.718   -25753.635   -40.824185   -183.73722    102.57312   -41.308453    41.498857    41.498857    82.997715 
   49200    1153.0676   -24563.619   -25755.835   -131.58325   -201.30081   -227.54612    34.097173    41.500265    41.500265    83.000531 
   49300     1151.125   -24563.551   -25753.759    24.297367    326.39081   -455.17671    201.67799    41.501014    41.501014    83.002028 
   49400    1150.1389   -24563.525   -25752.714    -1.293502    489.73728    -80.77662   -412.84117    41.501527    41.501527    83.003053 
   49500    1148.4392   -24563.591   -25751.022    2.5973617    904.84804    -665.8476   -231.20836    41.501551    41.501551    83.003101 
   49600    1148.6954   -24563.638   -25751.333   -16.296865    325.62366     -453.803    79.288747    41.501334    41.501334    83.002669 
   49700    1155.5789   -24563.761   -25758.574   -89.309377   -193.43854   -310.68937    236.19977    41.500354    41.500354    83.000709 
   49800    1157.0859   -24563.867   -25760.238    -175.8026    -74.61031    342.54716   -795.34466    41.499454    41.499454    82.998908 
   49900    1161.9438   -24563.952   -25765.346     -298.463   -401.15948   -529.13275    34.903242    41.498928    41.498928    82.997856 
   50000      1150.62   -24564.091   -25753.777    132.71333    481.42127   -398.58324    315.30196    41.498099    41.498099    82.996197 
Loop time of 1449.78 on 1 procs for 50000 steps with 8000 atoms

Pair  time (%) = 1309.09 (90.2962)
Neigh time (%) = 99.4818 (6.86187)
Comm  time (%) = 8.62959 (0.595235)
Outpt time (%) = 0.629922 (0.0434496)
Other time (%) = 31.9427 (2.20328)

Nlocal:    8000 ave 8000 max 8000 min
Histogram: 1 0 0 0 0 0 0 0 0 0
Nghost:    9035 ave 9035 max 9035 min
Histogram: 1 0 0 0 0 0 0 0 0 0
Neighs:    288563 ave 288563 max 288563 min
Histogram: 1 0 0 0 0 0 0 0 0 0

Total # of neighbors = 288563
Ave neighs/atom = 36.0704
Neighbor list builds = 5000
Dangerous builds = 0
unfix		1

# Melt half the system
region  liquid block INF INF INF INF INF ${nzhalf}
region  liquid block INF INF INF INF INF 10
group	liquid_group region liquid
3982 atoms in group liquid_group

# Heat up one side to Tmelt to make sure it is melted
fix 2 liquid_group npt temp ${Tmelt} ${Tmelt} 1 z 0 0 10 drag 1.0
fix 2 liquid_group npt temp 2000 ${Tmelt} 1 z 0 0 10 drag 1.0
fix 2 liquid_group npt temp 2000 2000 1 z 0 0 10 drag 1.0
run		${eqsteps}
run		50000
Memory usage per processor = 5.95825 Mbytes
Step Temp TotEng PotEng Press Pxx Pyy Pzz Lx Ly Lz 
   50000      1150.62   -24564.091   -25753.777    132.71333    481.42127   -398.58324    315.30196    41.498099    41.498099    82.996197 
   50100    1153.3096   -24561.742   -25754.209    202.59913    290.94041   -197.56778    514.42476    41.498099    41.498099    82.996354 
   50200       1155.8    -24555.95   -25750.992    216.54328    166.59453   -31.805697    514.84099    41.498099    41.498099    82.996751 
   50300     1158.975    -24549.81   -25748.135    329.78399    595.31711   -204.56984    598.60469    41.498099    41.498099    82.997456 
   50400    1152.1576   -24544.237   -25735.513    762.43127    504.32911    532.51156    1250.4532    41.498099    41.498099    82.998507 
   50500    1152.9176   -24538.273   -25730.334    799.75436    838.52924     692.3533    868.38055    41.498099    41.498099     83.00011 
   50600    1168.5637   -24531.772   -25740.011    490.71297     368.2583    425.05897    678.82164    41.498099    41.498099    83.002182 
   50700    1168.4337   -24525.064   -25733.169    802.46779    661.72814    685.22872    1060.4465    41.498099    41.498099    83.004667 
   50800    1169.4803   -24518.219   -25727.405    947.40028    567.06633    695.80277    1579.3317    41.498099    41.498099    83.007717 
   50900    1176.9114   -24511.285   -25728.155    947.99948    1076.0542    303.95307    1463.9912    41.498099    41.498099    83.011422 
   51000    1184.7308   -24504.319   -25729.274    1064.9951     589.8696    1248.3674    1356.7483    41.498099    41.498099    83.015871 
   51100    1187.9953   -24497.297   -25725.627    1194.9661    1157.4427    1140.4381    1287.0175    41.498099    41.498099    83.021121 
   51200    1185.3617   -24490.182   -25715.789    1359.2914    1287.9523    1515.2938     1274.628    41.498099    41.498099    83.027065 
   51300    1183.4457    -24483.06   -25706.686    1545.4932    1713.9114    890.56646    2032.0018    41.498099    41.498099    83.033666 
   51400    1202.9136   -24475.857   -25719.612    1192.9263     1383.111    810.29142    1385.3765    41.498099    41.498099    83.041139 
   51500    1185.7131   -24468.644   -25694.614     1895.783    1896.1761    1695.8224    2095.3504    41.498099    41.498099    83.049333 
   51600    1196.3671    -24461.43   -25698.416    1766.7638     1650.295    1150.8021    2499.1944    41.498099    41.498099    83.058426 
   51700    1210.7216    -24454.19   -25706.018    1621.8644    1196.2701    760.71595    2908.6072    41.498099    41.498099    83.068665 
   51800    1200.4554   -24446.912   -25688.125     1891.245    1600.6531    2194.3905    1878.6915    41.498099    41.498099    83.080193 
   51900    1204.0167   -24439.626   -25684.521    1949.0598    2408.3617    1381.9787    2056.8392    41.498099    41.498099    83.092738 
   52000    1205.3162   -24432.323   -25678.562    1964.7161    1726.5472    2186.5427    1981.0585    41.498099    41.498099    83.106218 
   52100    1209.5831   -24424.973   -25675.624    2013.2791    2175.4874    1621.8154    2242.5345    41.498099    41.498099    83.120601 
   52200     1215.579    -24417.58    -25674.43    2041.5766    1903.3933    1918.8392    2302.4973    41.498099    41.498099    83.135931 
   52300    1214.7269   -24410.231     -25666.2    2065.6778    2104.2348    2123.1688    1969.6298    41.498099    41.498099    83.152165 
   52400    1220.4555   -24402.849   -25664.741     2056.191    2658.1256    1157.5479    2352.8995    41.498099    41.498099     83.16929 
   52500    1224.8819   -24395.464   -25661.933    2102.0006    2404.9863      1519.79    2381.2256    41.498099    41.498099    83.187412 
   52600     1224.479   -24388.061   -25654.114    2168.4689    2325.6983    1791.2655     2388.443    41.498099    41.498099    83.206493 
   52700    1237.9332   -24380.609   -25660.572    2042.4324    1843.3903    2229.6452    2054.2618    41.498099    41.498099    83.226509 
   52800    1228.9088   -24373.153   -25643.786    2202.8081    2306.7643    1995.4693    2306.1906    41.498099    41.498099    83.247334 
   52900      1223.04   -24365.741   -25630.306    2368.8916    2052.9959    2251.2433    2802.4355    41.498099    41.498099    83.269066 
   53000    1244.2529   -24358.225   -25644.723    1874.5203     1436.267    2203.7343    1983.5597    41.498099    41.498099    83.291687 
   53100    1222.5896   -24350.777   -25614.876    2459.1745    1855.1317    2533.0306    2989.3613    41.498099    41.498099    83.315032 
   53200    1242.3479    -24343.22   -25627.748    2068.0695    1834.1591     2153.491    2216.5584    41.498099    41.498099    83.339146 
   53300    1242.7281   -24335.691   -25620.612    2011.5837    1993.0023    2120.9821    1920.7666    41.498099    41.498099    83.363812 
   53400    1241.8073   -24328.162   -25612.131    2351.2119    2484.6097     1847.816    2721.2101    41.498099    41.498099    83.389101 
   53500    1244.1483   -24320.602   -25606.992    2235.5776     2305.365       2296.1    2105.2678    41.498099    41.498099    83.415132 
   53600     1241.384   -24313.001   -25596.532    2256.7824    2459.3675    2146.5289    2164.4507    41.498099    41.498099    83.441704 
   53700    1247.5611   -24305.419   -25595.338     2211.582     2706.632    2560.1023    1368.0119    41.498099    41.498099    83.468647 
   53800    1258.4807   -24297.771   -25598.979    1840.8598     2099.868    1402.3412    2020.3703    41.498099    41.498099    83.495678 
   53900    1254.6525   -24290.159   -25587.409    2126.8551    1828.5355    1696.5679    2855.4618    41.498099    41.498099    83.522975 
   54000    1257.9447   -24282.528   -25583.183    1965.3199    2132.1771    1834.1373    1929.6454    41.498099    41.498099    83.550739 
   54100    1269.6577   -24274.915   -25587.679    1803.8835    1461.5423    2337.2091    1612.8991    41.498099    41.498099    83.578864 
   54200    1261.8306   -24267.238    -25571.91    2038.4928    2229.5668    1959.8261    1926.0854    41.498099    41.498099    83.607163 
   54300     1265.518   -24259.595    -25568.08    1951.5786    2708.5302    1214.3761    1931.8294    41.498099    41.498099    83.635679 
   54400    1269.1395   -24251.935   -25564.164    1842.3594    2012.9074    1720.6122    1793.5585    41.498099    41.498099    83.664459 
   54500    1262.2946    -24244.28   -25549.432    2004.0852    1933.7987    2346.9317    1731.5251    41.498099    41.498099    83.693363 
   54600    1267.3904   -24236.628   -25547.049    2067.5027    2839.9648    2209.8903     1152.653    41.498099    41.498099    83.722237 
   54700    1280.5826   -24228.942   -25553.003    1810.0475     2453.412    1650.8884    1325.8421    41.498099    41.498099    83.751002 
[...]
  336300    1007.7391   -24290.473   -25332.426   -138.52342    -601.5305   -27.682837    213.64307    41.362034    41.362034    85.185391 
  336400    981.00922   -24290.522   -25304.839   -306.77267    -788.0923   -331.08292    198.85721    41.362028    41.362028    85.297992 
  336500    1000.3429   -24290.452   -25324.758   -1351.8143   -2107.1776   -212.05898   -1736.2063      41.3617      41.3617    85.376122 
  336600    1004.5509   -24290.499   -25329.157   -938.80614   -1146.7379   -433.18812   -1236.4923    41.360968    41.360968    85.329275 
  336700    989.96254   -24290.486    -25314.06   -11.073235   -684.86803    259.35795    392.29038    41.360055    41.360055    85.244587 
  336800     1005.377   -24290.509    -25330.02    22.623598   -213.40808    324.09356   -42.814691    41.359211    41.359211    85.183139 
  336900    1013.1536   -24290.491   -25338.043    176.07299    632.97046   -675.19494    570.44345     41.35859     41.35859    85.132622 
  337000    995.73336   -24290.485   -25320.026     441.7569    1479.2284    807.02322   -960.98092    41.358208    41.358208    85.156481 
  337100    985.34204   -24290.487   -25309.283    921.33668    948.21488    860.89081    954.90434    41.358233    41.358233    85.160046 
  337200    999.60939   -24290.531   -25324.079   -33.518331   -547.39517    188.70722    258.13296    41.358582    41.358582    85.210574 
  337300    998.88342   -24290.507   -25323.305   -463.22788    -1059.182     294.5584   -625.06007    41.358899    41.358899    85.279111 
  337400    988.99322   -24290.494   -25313.065   -332.00659   -1296.0894    380.44964   -80.379969    41.359027    41.359027    85.294199 
  337500    992.95183   -24290.515   -25317.179   -457.36408   -713.04797    175.92311   -834.96738    41.358912    41.358912    85.275054 
  337600     985.7267   -24290.509   -25309.703    246.44126   -184.98889    113.45698    810.85568    41.358705    41.358705     85.22361 
  337700    996.65575   -24290.512   -25321.006    69.649817   -275.53527     398.5059     85.97882    41.358459    41.358459    85.232212 
  337800    982.13607     -24290.5   -25305.981    318.03472     -609.243    498.02457    1065.3226    41.358253    41.358253    85.249203 
  337900    997.02221   -24290.527     -25321.4   -649.68932   -807.36254   -1039.6912   -102.01422    41.358005    41.358005    85.293571 
  338000    995.75314   -24290.514   -25320.075   -721.06213   -674.94949   -586.88957   -901.34734    41.357477    41.357477    85.325792 
  338100    1000.8515   -24290.557    -25325.39   -428.27286   -926.36773   -76.958791   -281.49205     41.35674     41.35674    85.276709 
  338200    1006.0618   -24290.539   -25330.758    94.163391    319.56013   -266.21258    229.14262    41.355912    41.355912    85.211712 
  338300    993.50304   -24290.531   -25317.766    356.38605    359.86993    497.80672    211.48152    41.355245    41.355245    85.198774 
  338400    1004.3083   -24290.561   -25328.968   -220.62279   -234.54829   -531.64805    104.32795    41.354766    41.354766    85.236346 
  338500    1002.6953   -24290.595   -25327.333   -673.54197   -338.62747   -1550.4454   -131.55301    41.354302    41.354302    85.317895 
  338600    989.20349   -24290.569   -25313.358   -861.64135   -984.25477    -1417.999   -182.67031    41.353599    41.353599    85.388673 
  338700    986.88977    -24290.56   -25310.956   -1116.6754    -1040.907   -1653.2894   -655.82972    41.352455    41.352455    85.417483 
  338800    977.88954   -24290.585   -25301.676   -349.84727   -181.75766   -589.05934    -278.7248    41.350855    41.350855      85.3891 
  338900    995.32797   -24290.596   -25319.717   -638.13242   -1030.5143   -430.32096   -453.56203    41.349099    41.349099    85.338581 
  339000    994.28839   -24290.633    -25318.68   -144.42616   -193.73507   -267.55177    28.008353    41.347279    41.347279     85.27084 
  339100     995.8539   -24290.607   -25320.272    746.21055    650.36875   -59.602334    1647.8652    41.345661    41.345661    85.212196 
  339200    995.93073   -24290.621   -25320.366    480.14205    796.46211   -284.80554    928.76957    41.344369    41.344369    85.240778 
  339300    995.66026   -24290.652   -25320.117   -142.81378    1559.9778   -1433.1303   -555.28885     41.34333     41.34333    85.320421 
  339400    987.68087   -24290.622   -25311.837   -343.97109    634.58112   -923.08284   -743.41156    41.342408    41.342408    85.368578 
  339500     983.1607   -24290.634   -25307.175   -57.837009    487.28208    -710.9325    50.139384    41.341499    41.341499    85.351356 
  339600     986.0327   -24290.626   -25310.136   -158.15663   -1069.7199    92.801525    502.44852    41.340556    41.340556    85.321079 
  339700    1002.0584   -24290.638   -25326.718   -354.90829    156.74219    -733.1155   -488.35157    41.339483    41.339483    85.305858 
  339800    995.11305   -24290.636   -25319.535    333.97364    1051.8482   -280.91807    230.99081    41.338429    41.338429    85.276738 
  339900    983.65196    -24290.64   -25307.689    599.77479    294.12163    332.49211    1172.7106    41.337562    41.337562    85.264648 
  340000     997.3155    -24290.68   -25321.856   -206.00582    157.73369   -1065.8665    290.11536    41.336798    41.336798    85.327266 
  340100    996.41754    -24290.65   -25320.898   -529.88531    -578.5463     -137.238   -873.87164    41.336002    41.336002    85.379667 
  340200    1002.3571   -24290.658   -25327.047   -295.48087   -257.87232   -167.84003   -460.73025    41.335244    41.335244    85.360976 
  340300    1008.0735   -24290.677   -25332.977   -179.42683   -668.80665    1018.6686   -888.14241    41.334659    41.334659    85.310142 
  340400    992.40483   -24290.679   -25316.778    743.32292    504.50863    1655.7712    69.688947    41.334354    41.334354    85.239121 
  340500     998.2613   -24290.664   -25322.818    700.23039    215.07908    644.39778    1241.2143    41.334421    41.334421     85.20291 
  340600    1005.0874   -24290.682   -25329.894    245.50188   -70.308641    244.45451    562.35976     41.33468     41.33468    85.233623 
  340700    999.91375   -24290.692   -25324.554    151.79115   -672.46312    733.28563    394.55094    41.335006    41.335006    85.284377 
  340800    997.89342   -24290.699   -25322.473    -382.4157     -406.086   -412.87644   -328.28465    41.335326    41.335326    85.349977 
  340900     992.2711   -24290.681   -25316.642   -459.91036   -141.15339   -1250.3583    11.780552    41.335493    41.335493    85.395396 
  341000    991.93747   -24290.684     -25316.3   -660.60625   -134.05758   -1267.9641   -579.79707    41.335369    41.335369    85.396841 
  341100    996.21471   -24290.716   -25320.754   -121.71667    327.58357   -1169.7186    476.98502    41.334986    41.334986    85.335655 
  341200    994.68899   -24290.693   -25319.153    253.00239    320.22289   -403.10352     841.8878    41.334444    41.334444    85.302163 
  341300    995.09292   -24290.698   -25319.576    231.85541    -405.6163    1133.1296   -31.947028    41.333872    41.333872    85.295923 
  341400    996.31559   -24290.694   -25320.836    238.66942    84.106848   -82.527276    714.42868    41.333503    41.333503    85.280347 
  341500    1002.6752    -24290.71   -25327.427   -118.44748   -34.879411   -95.252195   -225.21084    41.333267    41.333267     85.31028 
  341600    1005.1178   -24290.711   -25329.954   -107.69729    409.06773    60.077738   -792.23732     41.33305     41.33305    85.316505 
  341700    995.74688   -24290.703   -25320.257    414.73703   -543.45905    800.55505     987.1151    41.332949    41.332949    85.288068 
  341800    1001.6896   -24290.705   -25326.404    -284.8707   -365.18454     210.7487   -700.17625    41.332941    41.332941    85.323934 
  341900    1002.4731   -24290.704   -25327.213   -327.39155   -1139.0007    370.38352   -213.55746    41.332921    41.332921    85.348781 
  342000    994.84402   -24290.704   -25319.325   -75.325645       -580.8    205.51256    149.31051    41.332751    41.332751    85.371939 
  342100    996.23466   -24290.709   -25320.768   -489.42394   -3.2975576   -494.26083   -970.71344    41.332458    41.332458    85.382772 
  342200     1006.318    -24290.73   -25331.215   -62.317971   -438.83162   -261.37928    513.25698    41.332164    41.332164    85.321941 
  342300    993.20577   -24290.718   -25317.645    416.79486   -329.94565    808.85723      771.473    41.331918    41.331918    85.281185 
  342400     998.5647   -24290.714   -25323.182    363.98611    592.58444     331.8882    167.48569    41.331807    41.331807    85.289642 
  342500     998.3711   -24290.716   -25322.984    74.087667    -199.5088   -188.95025    610.72205    41.331826    41.331826    85.309649 
  342600    1000.9311   -24290.746    -25325.66   -480.48224   -1238.5042   -879.88228     676.9398    41.331692    41.331692    85.363039 
  342700    990.03693   -24290.769    -25314.42   -798.82381   -915.43202   -919.97841   -561.06098    41.331205    41.331205    85.448136 
  342800    990.33691   -24290.736   -25314.697   -690.79856   -628.50738   -511.50217   -932.38613    41.330423    41.330423    85.476653 
  342900    996.48315   -24290.814   -25321.129   -459.56034   -688.13561    -93.11342     -597.432     41.32945     41.32945    85.405152 
  343000    987.88335   -24290.776   -25312.199     443.1933    92.782132    207.65805    1029.1397    41.328494    41.328494    85.316474 
  343100    999.32501    -24290.77   -25324.024    188.37391    -196.2413    529.82062     231.5424    41.327734    41.327734    85.305397 
  343200    997.15134   -24290.768   -25321.774    163.04996    -138.2972     362.0307    265.41638     41.32719     41.32719    85.331344 
  343300    998.38817   -24290.792   -25323.077   -135.77081   -1102.2857   -349.87329    1044.8465    41.326748    41.326748    85.371091 
  343400    992.38412   -24290.789   -25316.866   -425.51204   -12.673502   -339.73407   -924.12856    41.326202    41.326202     85.44372 
  343500    993.49771   -24290.794   -25318.023   -604.93007    -913.4348   -437.16033   -464.19508    41.325568    41.325568    85.435679 
  343600    1001.3101   -24290.813   -25326.119   -304.02422   -117.78555   -404.18395   -390.10315    41.324779    41.324779    85.375452 
  343700    992.33496   -24290.831   -25316.858    486.70437    324.89215    261.12088    874.10007    41.324073    41.324073     85.29042 
  343800    996.22687   -24290.802   -25320.853    687.28768    1329.9525   -87.727431    819.63799     41.32364     41.32364    85.266621 
  343900    1003.9872    -24290.84   -25328.914    11.794675    653.27509   -400.11765   -217.77342    41.323442    41.323442    85.321454 
  344000    989.60086    -24290.84    -25314.04   -331.92218   -169.55848   -717.47875   -108.72932    41.323308    41.323308    85.393779 
  344100    989.95291    -24290.82   -25314.384   -386.36181    221.65284   -744.60191   -636.13637    41.323107    41.323107    85.421725 
  344200    978.58815   -24290.823   -25302.636   -122.44357   -463.45458   -810.28513      906.409    41.322744    41.322744    85.418384 
  344300    984.76343   -24290.854   -25309.052   -464.36273   -1555.9079   -454.11347     616.9332    41.321982    41.321982    85.466863 
  344400    997.08189   -24290.861   -25321.796   -1113.6779   -1261.0009   -1377.4566   -702.57606    41.320845    41.320845    85.538963 
  344500    990.69464   -24290.854   -25315.185   -900.00841   -685.68117   -1177.5171     -836.827    41.319391    41.319391     85.56253 
  344600    985.80059   -24290.921   -25310.192   -691.56288   -739.43005   -741.10958   -594.14902     41.31774     41.31774    85.507927 
  344700    997.36451   -24290.991   -25322.218   -6.6359432   -137.44095    384.99528   -267.46216    41.316052    41.316052    85.390041 
  344800    994.33304   -24290.966   -25319.059    1174.6364    1295.6992    1438.4486    789.76146    41.314741    41.314741    85.266259 
  344900    988.84237   -24290.924   -25313.339    1532.7054    818.30871    1973.2495    1806.5579     41.31417     41.31417    85.219889 
  345000    995.68981   -24291.051   -25320.546    628.94435   -398.27193    1160.9292    1124.1758    41.314216    41.314216    85.306665 
  345100    992.48267   -24291.123   -25317.302   -565.37038    -137.2941    -223.2696   -1335.5474    41.314427    41.314427    85.471483 
  345200    985.54619   -24291.006   -25310.014   -816.44572   -1340.3665   -553.51256   -555.45803    41.314468    41.314468    85.541759 
  345300    996.81924   -24291.054   -25321.717   -736.50284   -1269.2461    480.71177   -1420.9742    41.314043    41.314043    85.509774 
  345400    997.54235   -24291.115   -25322.525     95.45145   -463.61972    757.79341   -7.8193428    41.313374    41.313374    85.399574 
  345500    999.45238    -24291.06   -25324.446    232.25938     707.3449   -121.17698    110.61022    41.312767    41.312767    85.328853 
  345600    990.69419   -24291.061   -25315.391    1161.5025    703.36289    1625.3166     1155.828    41.312388    41.312388    85.297618 
  345700    1002.7741   -24291.102   -25327.922    255.82326    223.50671   -234.48178    778.44486    41.312428    41.312428    85.335191 
  345800    1005.9675   -24291.105   -25331.227    -229.0664    393.61056    -113.1948   -967.61497    41.312501    41.312501    85.418456 
  345900    993.24428   -24291.077   -25318.044   -275.74666   -69.294428   -332.25678   -425.68877    41.312611    41.312611    85.437782 
  346000    995.37561   -24291.081   -25320.252   -45.207521    641.03514   -627.71573   -148.94197    41.312679    41.312679    85.422179 
  346100    983.22525   -24291.092     -25307.7     347.8323    785.77497    898.31657   -640.59463    41.312829    41.312829    85.385829 
  346200     1001.122   -24291.105   -25326.217    432.21232    435.85056    456.84767    403.93872    41.313147    41.313147    85.316034 
  346300    994.63923    -24291.09   -25319.499    511.77322    674.87887     491.2612    369.17959    41.313584    41.313584    85.290415 
  346400    998.73304     -24291.1   -25323.742    705.58316    918.04016    1537.8682   -339.15886    41.314231    41.314231    85.306319 
  346500    999.79282   -24291.103   -25324.841    492.89843    109.25287    1085.1751    284.26728    41.315251    41.315251    85.318992 
  346600    995.39086   -24291.103    -25320.29    440.63142    401.29124    653.87371     266.7293    41.316394    41.316394    85.334504 
  346700    997.40065   -24291.132   -25322.396   -61.116147    80.280341    146.02576   -409.65454    41.317525    41.317525    85.385966 
  346800    1004.5761   -24291.115   -25329.798   -167.78372    76.753885   -401.63829   -178.46677    41.318571    41.318571    85.420826 
  346900    1004.0541   -24291.118   -25329.261   -518.53914   -335.34439   -960.61568   -259.65735     41.31944     41.31944    85.430315 
  347000    988.38609   -24291.109   -25313.052   -274.97415   -268.08805   -437.19806   -119.63634    41.320007    41.320007    85.431741 
  347100    990.12384   -24291.111   -25314.852   -44.340171   -751.85206    507.09151    111.74003    41.320306    41.320306    85.410939 
  347200    989.17204    -24291.12   -25313.876    250.64501   -1137.9619    748.90612    1140.9908    41.320411    41.320411    85.367712 
  347300    996.50715   -24291.137   -25321.477   -270.88628   -913.27003   -190.55261    291.16381    41.320386    41.320386    85.395534 
  347400    995.06676   -24291.158   -25320.009   -512.36323   -2153.6119    -170.9367    787.45891    41.320117    41.320117    85.457875 
  347500     999.6921   -24291.166   -25324.799   -1285.8752   -2660.5152   -478.02134    -719.0891    41.319454    41.319454    85.543698 
  347600    985.18776   -24291.158   -25309.794   -802.17917   -820.96395   -226.97427   -1358.5993    41.318304    41.318304    85.560894 
  347700    1001.5646   -24291.315   -25326.885    -626.9582   -299.15962   -308.50277   -1273.2122    41.317004    41.317004    85.454384 
  347800    996.35986   -24291.278   -25321.466    707.69668   -607.44164    1221.0471    1509.4846    41.315789    41.315789    85.296509 
  347900    1002.0968   -24291.277   -25327.397    706.68042    217.23508    362.03429    1540.7719    41.314867    41.314867    85.288805 
  348000    998.74456   -24291.343   -25323.997   -346.88407    497.08069   -1060.0804   -477.65246    41.314285    41.314285    85.414927 
  348100    988.26798   -24291.275   -25313.096   -362.51803    429.58835     -1047.89   -469.25248    41.313784    41.313784    85.482155 
  348200    990.44605   -24291.275   -25315.349   -250.32008    154.44237   -884.17012   -21.232482    41.313247    41.313247    85.473481 
  348300    996.41047   -24291.284   -25321.525    -316.9803   -617.81942   -186.18799    -146.9335    41.312586    41.312586    85.449756 
  348400    987.19148   -24291.291   -25311.999   -139.96388   -241.46133   -588.99181    410.56152    41.311737    41.311737    85.462602 
  348500    1011.2465   -24291.305   -25336.885    -1051.774   -1496.2627   -1052.5772   -606.48218    41.310721    41.310721    85.507756 
  348600    995.55176   -24291.299   -25320.652   -797.87256   -581.20394   -1341.4999   -470.91385    41.309477    41.309477    85.526392 
  348700    995.87605   -24291.352    -25321.04   -366.79598    363.43611   -344.11238   -1119.7117    41.308159    41.308159    85.488284 
  348800    1008.9271   -24291.378    -25334.56    213.17425    270.59533    373.30935    -4.381929    41.307054    41.307054    85.380434 
  348900    1009.0627   -24291.338    -25334.66    622.71889    554.44363     405.2056    908.50745    41.306362    41.306362    85.305735 
  349000    990.17279   -24291.352   -25315.143    967.74323    1488.3573   -217.40159     1632.274    41.306045    41.306045    85.317329 
  349100    988.58169   -24291.452   -25313.598    318.60528    1321.2315   -902.03539     536.6197    41.305909    41.305909    85.433219 
  349200    997.04658   -24291.429   -25322.327   -1036.1317   -1137.1569   -385.43674   -1585.8014    41.305674    41.305674    85.560528 
  349300    1004.8758   -24291.404   -25330.397   -1310.1283   -345.42858   -1836.1299   -1748.8263    41.305146    41.305146    85.584934 
  349400    996.04433   -24291.473   -25321.335   -453.90798   -1272.2941    85.641928   -175.07173    41.304265    41.304265    85.502126 
  349500    1002.7819   -24291.434   -25328.262   -73.652685   -824.54979    52.838128    550.75361    41.303233    41.303233    85.423271 
  349600    998.53947   -24291.445   -25323.886     410.2331    566.83775   -991.03795    1654.8995    41.302215    41.302215    85.412423 
  349700    1002.9897   -24291.458   -25328.501   -286.32276    182.90146   -158.22338   -883.64636    41.301334    41.301334    85.482231 
  349800    989.43347    -24291.44   -25314.466   -287.01305   -377.51789   -266.15755    -217.3637    41.300583    41.300583    85.494014 
  349900    1006.8434   -24291.452   -25332.479    -506.7104    -238.1184   -945.53674   -336.47607     41.29977     41.29977    85.481641 
  350000    993.92779   -24291.452   -25319.125    70.568865    221.75623    447.10886   -457.15849    41.298898    41.298898    85.460614 
Loop time of 5632.94 on 1 procs for 200000 steps with 8000 atoms

Pair  time (%) = 5087.52 (90.3173)
Neigh time (%) = 389.692 (6.91809)
Comm  time (%) = 32.6659 (0.579908)
Outpt time (%) = 2.49271 (0.0442523)
Other time (%) = 120.57 (2.14044)

Nlocal:    8000 ave 8000 max 8000 min
Histogram: 1 0 0 0 0 0 0 0 0 0
Nghost:    8387 ave 8387 max 8387 min
Histogram: 1 0 0 0 0 0 0 0 0 0
Neighs:    277558 ave 277558 max 277558 min
Histogram: 1 0 0 0 0 0 0 0 0 0

Total # of neighbors = 277558
Ave neighs/atom = 34.6947
>>>>>>> 94dc76cbf6aefb67eb008d019d1914a1977c8b15
Neighbor list builds = 20000
Dangerous builds = 0
unfix		4
