LAMMPS (13 Jan 2014)
dimension       3
boundary        p p p
units           metal

atom_style	atomic
neighbor	0.3 bin
neigh_modify	every 10 delay 0 check no

# Number of steps for the equilibration steps
variable        eqsteps equal 50000

# Number of steps to run our NPH simulation
variable        simsteps equal 200000

# Our trial melting temperature
variable	T equal 1275.0
variable	T2 equal 2*${T}
variable	T2 equal 2*1275

# Some high temperature to melt the crystal
variable	Tmelt equal 2000.0

#System size
variable	nx equal 10
variable	ny equal 10
variable	nz equal 20
variable	nzhalf equal ${nz}*0.5
variable	nzhalf equal 20*0.5
variable	a equal 4.050
variable	length equal ${nz}*${a}
variable	length equal 20*${a}
variable	length equal 20*4.05

lattice		fcc ${a}
lattice		fcc 4.05
Lattice spacing in x,y,z = 4.05 4.05 4.05

region         box block 0 ${nx} 0 ${ny} 0 ${nz}
region         box block 0 10 0 ${ny} 0 ${nz}
region         box block 0 10 0 10 0 ${nz}
region         box block 0 10 0 10 0 20
create_box     1 box
Created orthogonal box = (0 0 0) to (40.5 40.5 81)
  1 by 1 by 1 MPI processor grid
create_atoms   1 box
Created 8000 atoms

mass		1 26.9815

pair_style	eam/alloy
pair_coeff	* * Al_potential.alloy Al

velocity	all create ${T2} 1337
velocity	all create 2550 1337

# Create a dump file. This can be visualized with
# e.g. OVITO (http://www.ovito.org/)
dump		id all atom 1000 atomsdump

# 1 fs timestep
timestep	0.001
thermo_style	custom step temp etotal pe press pxx pyy pzz lx ly lz

# output every 100th timestep
thermo		100

# Equilibration the whole system to the trial melting temperature
fix		1 all npt temp ${T} ${T} 1 iso 0 0 3 drag 1.0
fix		1 all npt temp 1275 ${T} 1 iso 0 0 3 drag 1.0
fix		1 all npt temp 1275 1275 1 iso 0 0 3 drag 1.0
run		${eqsteps}
run		50000
Memory usage per processor = 5.95314 Mbytes
Step Temp TotEng PotEng Press Pxx Pyy Pzz Lx Ly Lz 
       0         2550   -24540.674   -27177.252    17132.781    16940.155    16920.229    17537.959         40.5         40.5           81 
     100    1191.8263    -24569.25   -25801.541    43786.805    44169.906    44019.119    43171.391    40.591642    40.591642    81.183285 
     200    1194.5428   -24618.672   -25853.772    30554.468    31447.514    30477.447    29738.442    40.814718    40.814718    81.629436 
     300    1164.0407   -24646.559   -25850.121    20804.204    21248.273    20388.286    20776.052    41.004392    41.004392    82.008784 
     400    1157.0027   -24658.604    -25854.89     13415.05    13965.643    12857.521    13421.986    41.151609    41.151609    82.303218 
     500    1136.4167   -24661.946   -25836.946    7700.4708    7824.4093    7193.1528    8083.8501    41.276827    41.276827    82.553654 
     600    1121.6747   -24660.052    -25819.81    3543.5867    3881.0118     3645.369    3104.3792    41.376072    41.376072    82.752145 
     700    1117.7369   -24655.111   -25810.798    339.21155    61.369762    531.59047    424.67442    41.447546    41.447546    82.895093 
     800    1120.3979   -24649.163     -25807.6   -1757.0942   -1529.9012   -1925.9273    -1815.454     41.49328     41.49328    82.986561 
     900    1111.3227   -24643.316    -25792.37   -2392.1504   -2533.9039   -2124.3559   -2518.1912    41.517483    41.517483    83.034967 
    1000    1111.1664   -24637.687   -25786.579   -2509.6702    -2904.694   -2101.5693   -2522.7473    41.525236    41.525236    83.050472 
    1100    1106.2043   -24632.242   -25776.004   -1859.6287   -2081.8354   -1774.0082   -1723.0425    41.520529    41.520529    83.041059 
    1200    1127.9637    -24626.75    -25793.01   -1793.7366   -2095.4954   -1516.4874    -1769.227    41.508394    41.508394    83.016788 
    1300    1124.3602    -24621.17   -25783.705   -706.03956   -383.74798   -851.68062   -882.69009    41.492287    41.492287    82.984575 
    1400    1130.3357    -24615.49   -25784.203    -162.4793    168.34281   -752.66084    96.880132    41.476387    41.476387    82.952773 
    1500    1140.8277   -24609.743   -25789.304    409.65302    458.74386    288.30768    481.90752    41.463557    41.463557    82.927114 
    1600    1131.8937   -24604.025   -25774.348    1396.8917    1239.0388    1266.6971    1684.9392    41.455314    41.455314    82.910628 
    1700    1129.0067   -24598.382    -25765.72    1686.9871    1437.6863     1903.461     1719.814    41.453586    41.453586    82.907172 
    1800    1142.9159   -24592.773   -25774.493    1259.6126    1157.5859    1278.9521    1342.2999    41.458209    41.458209    82.916418 
    1900    1146.8758   -24587.255    -25773.07    816.74597    2009.3635    605.61306    -164.7386    41.466916    41.466916    82.933833 
    2000    1149.2492   -24581.837   -25770.106    500.08385    736.78254    408.88409    354.58493    41.477932    41.477932    82.955865 
    2100    1131.6547   -24576.478   -25746.555    582.65825    432.58183    891.70336    423.68955    41.489351    41.489351    82.978703 
    2200    1156.5042   -24571.057   -25766.827   -322.39984   -56.220462   -48.869186   -862.10986    41.500357    41.500357    83.000714 
    2300    1139.8119   -24565.713   -25744.224   -160.36612   -262.15407    106.78222   -325.72651    41.508947    41.508947    83.017893 
    2400    1160.9184   -24560.304   -25760.638   -907.92555   -771.52853   -745.22481   -1207.0233    41.514924    41.514924    83.029849 
    2500     1146.718   -24554.996   -25740.647   -471.10852   -83.876755   -100.03671   -1229.4121    41.517082    41.517082    83.034164 
    2600    1159.3199   -24549.688   -25748.369   -567.30765   -404.44361    -385.0875   -912.39184    41.516694    41.516694    83.033388 
    2700    1153.2696   -24544.463   -25736.888   -195.41716    14.126403    -209.7736   -390.60428    41.514546    41.514546    83.029092 
    2800    1171.2938   -24539.268    -25750.33   -257.93722   -115.84026    -591.5157   -66.455704    41.511517    41.511517    83.023035 
    2900    1148.9853   -24534.198   -25722.194    630.20504    269.10465    741.08086    880.42961     41.50836     41.50836     83.01672 
    3000    1168.4109    -24529.08   -25737.161    177.55927   -416.02446    1154.3586   -205.65635    41.506994    41.506994    83.013989 
    3100    1172.8276   -24524.039   -25736.686    364.84457   -183.63098    761.78652    516.37818    41.507183    41.507183    83.014365 
    3200    1169.6356   -24519.094   -25728.441    483.66336    235.93709    406.97464    808.07834    41.509221    41.509221    83.018441 
    3300    1170.8807   -24514.216    -25724.85    525.11601    708.01319    870.68643   -3.3516036    41.513798    41.513798    83.027596 
    3400    1178.4993   -24509.291   -25727.803   -18.793112    -259.3807    313.34318   -110.34181    41.520727    41.520727    83.041454 
    3500    1183.0025    -24504.41   -25727.578   -143.66246   -469.37532    24.072003    14.315931    41.528251    41.528251    83.056502 
    3600    1170.0045    -24499.58   -25709.308   -255.47617   -386.24027    95.388737   -475.57697    41.535399    41.535399    83.070797 
    3700    1167.4764   -24494.712   -25701.826   -137.97791   -12.967034     -646.413     245.4463    41.541604    41.541604    83.083208 
    3800    1181.4944   -24489.934   -25711.543   -604.18361   -702.68586   -1093.3716   -16.493421    41.545832    41.545832    83.091665 
    3900    1172.6044   -24485.227   -25697.643   -158.43726    202.71185   -315.11856   -362.90509    41.547812    41.547812    83.095623 
    4000    1174.9928   -24480.519   -25695.405   -223.28503    849.05252   -612.17545   -906.73216     41.54868     41.54868    83.097361 
    4100    1181.1156   -24475.805   -25697.022   -178.50782    40.584638   -85.705496   -490.40259    41.548464    41.548464    83.096928 
    4200     1183.891   -24471.177   -25695.263   -86.869135    675.02558   -419.19483   -516.43816    41.547125    41.547125     83.09425 
    4300     1188.225   -24466.712   -25695.279    205.09073      174.231   -234.32863    675.36981    41.545246    41.545246    83.090492 
    4400    1192.6072   -24462.372   -25695.471    193.20233    296.48724   -76.590314    359.71007    41.543941    41.543941    83.087882 
    4500    1191.4165    -24458.05   -25689.917    321.33852    491.40487    148.25566    324.35504    41.544027    41.544027    83.088054 
    4600    1197.9402   -24453.694   -25692.307    180.31938    460.32455   -67.922609    148.55618    41.545978    41.545978    83.091957 
    4700    1192.1207   -24449.411   -25682.007    126.84438   -357.43394   -21.278458    759.24553      41.5493      41.5493      83.0986 
    4800    1198.8049   -24445.121   -25684.628    159.78131    -422.2409    420.12665    481.45817    41.553874    41.553874    83.107749 
    4900     1202.985   -24440.925   -25684.754   -107.82879   -266.16418   -786.76283    729.44065    41.558702    41.558702    83.117403 
    5000    1205.9701   -24436.835    -25683.75   -202.62557   -613.09456   -35.328272    40.546131    41.562901    41.562901    83.125802 
    5100    1202.8162   -24432.813   -25676.467   -172.89995   -108.86659   -136.02238   -273.81089    41.566349    41.566349    83.132698 
    5200    1204.9091   -24428.801   -25674.619   -294.21668   -603.68854   -304.54706    25.585551     41.56931     41.56931    83.138621 
    5300       1190.1   -24424.783   -25655.289    93.887101    -98.50801    227.22404    152.94528    41.571098    41.571098    83.142196 
    5400    1190.0438    -24420.72   -25651.168    77.434788    169.29082   -540.76571    603.77925    41.572626    41.572626    83.145252 
    5500    1201.5463   -24416.606   -25658.947   -61.235853   -388.92431   -51.108739    256.32549     41.57414     41.57414     83.14828 
    5600    1210.8159   -24412.599   -25664.525   -253.75377   -335.71602   -857.32662    431.78133    41.575315    41.575315    83.150631 
    5700     1192.015   -24408.616   -25641.102    414.72205    194.43425    1079.1121   -29.380158    41.576415    41.576415    83.152831 
    5800    1205.3164   -24404.723   -25650.963    72.398163   -368.21289   -345.94086    931.34823    41.577621    41.577621    83.155243 
    5900    1195.6229   -24400.932   -25637.148    414.31606    668.34517     274.7069    299.89612     41.57876     41.57876     83.15752 
    6000    1233.3628   -24397.105   -25672.343   -521.49062   -149.39666   -480.68191    -934.3933    41.580523    41.580523    83.161047 
    6100    1218.8058   -24393.487   -25653.674   -102.46741    454.84475   -748.49202    -13.75498    41.581428    41.581428    83.162857 
    6200    1211.0221   -24389.967   -25642.105    245.99295    478.29561    496.76021   -237.07696    41.582143    41.582143    83.164285 
    6300    1218.1965    -24386.48   -25646.037    84.721438    636.45079   -85.523368   -296.76311    41.583541    41.583541    83.167082 
    6400    1209.0523   -24383.033   -25633.135    380.63643    97.798327    382.60382    661.50714    41.585442    41.585442    83.170884 
    6500    1211.5086   -24379.615   -25632.256    231.91224    435.21032   -701.76569    962.29208    41.587795    41.587795     83.17559 
    6600    1229.3342   -24376.226   -25647.298   -363.42732   -418.16185   -700.35174    28.231643    41.590514    41.590514    83.181028 
    6700    1229.0032   -24372.826   -25643.556   -333.44355    39.928801   -762.99473   -277.26471    41.593088    41.593088    83.186176 
    6800    1221.7313   -24369.429    -25632.64    50.829335    224.72047   -699.02766    626.79519    41.595289    41.595289    83.190579 
    6900    1220.4092   -24366.124   -25627.969    10.287418    287.01284    451.06966   -707.22025       41.597       41.597       83.194 
    7000    1199.2383    -24362.82   -25602.774    464.46593    968.58615    339.21388    85.597778    41.598497    41.598497    83.196994 
    7100    1235.0113   -24359.429   -25636.371   -419.29172   -43.544571   -67.717799   -1146.6128    41.600522    41.600522    83.201043 
    7200    1217.2911   -24356.156   -25614.777    214.17374    466.43787    452.81854    -276.7352    41.602003    41.602003    83.204006 
    7300    1234.4286   -24352.978   -25629.318   -154.68014    157.16204   -299.55387   -321.64859    41.603132    41.603132    83.206264 
    7400    1225.6839   -24349.943   -25617.242    7.1369812    122.88547    377.44708    -478.9216    41.603452    41.603452    83.206905 
    7500    1229.5012   -24346.964   -25618.209    75.404553    291.45063    14.953353   -80.190321    41.603876    41.603876    83.207751 
    7600    1227.3076   -24343.994   -25612.971    370.75825    63.902451    253.28681    795.08549    41.605125    41.605125    83.210249 
    7700    1241.9449   -24340.997   -25625.108   -185.74787    428.80515    137.09777   -1123.1465    41.607338    41.607338    83.214676 
    7800    1227.8757   -24338.145    -25607.71    107.34314   -521.13877    243.53031    599.63787    41.609125    41.609125     83.21825 
    7900    1234.9524   -24335.314   -25612.196   -59.148903    616.00188   -505.73195   -287.71664    41.611049    41.611049    83.222098 
    8000    1237.0277   -24332.467   -25611.494   -91.789948   -1072.2525     1342.071    -545.1883    41.613293    41.613293    83.226585 
    8100    1231.8357   -24329.685   -25603.344    125.81332   -301.67088    686.54123   -7.4303769    41.615426    41.615426    83.230852 
    8200    1238.3531   -24326.874   -25607.272    -101.3603    111.59612   -288.71236   -126.96466    41.618003    41.618003    83.236005 
    8300    1240.1919   -24324.016   -25606.315   -383.18446   -470.36316    -694.7466     15.55638     41.62076     41.62076    83.241521 
    8400    1226.4471   -24321.176   -25589.264    78.645251   -647.38309     431.3353    451.98355    41.623202    41.623202    83.246405 
    8500    1262.9578   -24318.298   -25624.136    -726.3208   -959.04348   -265.21969   -954.69923    41.625504    41.625504    83.251009 
    8600    1233.1389   -24315.574   -25590.581    72.481103   -414.73461    138.32255    493.85536    41.626688    41.626688    83.253376 
    8700    1231.1742   -24312.953   -25585.928   -12.086232    101.08044     -204.824    67.484861    41.627392    41.627392    83.254783 
    8800    1229.6204   -24310.255   -25581.624    18.476696   -307.17613   -134.00951    496.61573    41.627944    41.627944    83.255889 
    8900    1248.3204   -24307.533   -25598.236   -283.15781   -1141.4138    253.38662    38.553789    41.628268    41.628268    83.256536 
    9000    1244.4381   -24304.808   -25591.497   -67.957376   -25.463637   -357.44761    179.03912    41.628748    41.628748    83.257497 
    9100    1248.1264   -24302.167   -25592.669   -274.64767    194.09033    -885.3443   -132.68903    41.629291    41.629291    83.258581 
    9200    1237.4501   -24299.732   -25579.196    119.95883   -298.11188     526.3394    131.64898    41.629065    41.629065    83.258129 
    9300    1243.7426   -24297.317   -25583.287    166.60606   -30.333867   -9.0710689    539.22313     41.62955     41.62955    83.259101 
    9400    1248.1515   -24294.864   -25585.393     50.52021   -434.00374   -133.40535    718.96972     41.63118     41.63118    83.262361 
    9500    1250.6875   -24292.445   -25585.596    16.412981   -161.96281   -287.69822    498.89997    41.633329    41.633329    83.266658 
    9600    1246.7994   -24290.066   -25579.197    34.970592    28.275625   -13.650923    90.287075    41.635759    41.635759    83.271517 
    9700    1254.0437   -24287.746   -25584.367   -284.85004    603.69678   -424.77176   -1033.4752    41.638043    41.638043    83.276085 
    9800    1237.8122   -24285.553   -25565.392    238.00675    506.15419    55.338647    152.52741    41.639447    41.639447    83.278893 
    9900    1252.3608    -24283.29    -25578.17   -104.36357    269.56926    557.26657   -1139.9265    41.641254    41.641254    83.282508 
   10000    1241.8405    -24281.11   -25565.113    119.31175   -298.10862    344.03969    312.00417    41.642473    41.642473    83.284947 
   10100    1251.1784   -24278.978   -25572.637    -81.03888     -340.466   -94.014369    191.36373    41.643223    41.643223    83.286446 
   10200    1252.9508   -24276.867   -25572.358   -132.44234    11.703177   -387.37051   -21.659702    41.643849    41.643849    83.287699 
   10300    1262.8788   -24274.802   -25580.558   -297.26274   -566.65938   -500.75988    175.63103    41.644098    41.644098    83.288197 
   10400    1244.8909   -24272.852   -25560.009    286.57383    259.80341    482.86678    117.05132    41.643695    41.643695    83.287389 
   10500     1227.982   -24270.873   -25540.548    721.47773     470.8017    631.16806    1062.4634    41.643932    41.643932    83.287864 
   10600    1250.5305    -24268.84   -25561.828    155.07386    272.25387    24.284855    168.68286      41.6452      41.6452      83.2904 
   10700     1259.032   -24266.769   -25568.548   -235.12176    467.52127   -685.02537   -487.86117    41.647253    41.647253    83.294505 
   10800    1250.1256   -24264.814   -25557.383    40.394113     214.9359    108.87178   -202.62535    41.648626    41.648626    83.297252 
   10900    1262.6847   -24262.961   -25568.516   -190.39451   -234.91126   -817.25442    480.98215    41.649185    41.649185     83.29837 
   11000    1255.7226   -24261.273    -25559.63    126.44956    -62.06038   -9.4038445     450.8129    41.648805    41.648805     83.29761 
   11100    1255.7971   -24259.595   -25558.029    106.94365    181.62722   -753.43251    892.63624    41.649203    41.649203    83.298407 
   11200    1261.4246   -24257.833   -25562.085    126.64508    412.84161   -660.82129    627.91491    41.650702    41.650702    83.301404 
   11300    1254.9761   -24256.025    -25553.61    194.62775   -358.29243    686.84715    255.32853    41.652996    41.652996    83.305992 
   11400    1253.2842   -24254.184    -25550.02    270.49448    620.68566    87.784841    103.01295     41.65618     41.65618    83.312359 
   11500    1259.9452   -24252.302   -25555.025   -99.029895    588.83412   -1363.1406     477.2168    41.659861    41.659861    83.319722 
   11600    1271.5555   -24250.462   -25565.189   -515.66966    54.912752   -351.02937   -1250.8924    41.662926    41.662926    83.325852 
   11700    1259.7444   -24248.758   -25551.273   -437.65165   -1021.6699   -49.056981   -242.22806    41.664361    41.664361    83.328722 
   11800    1242.2604   -24247.126   -25531.563    331.92752    557.83525   -233.17902    671.12633    41.664003    41.664003    83.328006 
   11900    1257.1348   -24245.442   -25545.259   -165.89625    257.72272   -88.286406   -667.12506    41.663498    41.663498    83.326996 
   12000    1260.8296   -24243.808   -25547.445   -138.43543    880.71476   -1134.0522   -161.96884    41.662241    41.662241    83.324481 
   12100    1260.6805   -24242.229   -25545.712    114.83977    224.50063    105.54404    14.474647    41.660287    41.660287    83.320574 
   12200     1260.056   -24240.653    -25543.49    254.79981    475.65878   -219.08217    507.82283    41.658753    41.658753    83.317506 
   12300     1264.637   -24239.111   -25546.685    194.45424    1052.3108    179.86037   -648.80845    41.658039    41.658039    83.316077 
   12400    1267.4722   -24237.648   -25548.153    -33.78513   -126.07856   -194.02973    218.75289    41.658176    41.658176    83.316352 
   12500    1267.7281   -24236.312   -25547.082    187.40339   -135.60617    989.22054   -291.40422    41.658635    41.658635    83.317271 
   12600    1269.4482   -24235.126   -25547.674    192.15833    219.26226    674.88901   -317.67629    41.659733    41.659733    83.319467 
   12700    1265.9761   -24234.047   -25543.005    283.94548    653.17311    508.75008   -310.08675    41.661588    41.661588    83.323177 
   12800    1249.4541   -24232.928   -25524.804     366.9795    747.62035    1.7232178    351.59492    41.664116    41.664116    83.328233 
   12900    1270.4411   -24231.761   -25545.336   -355.54865    6.1832887    161.14405   -1233.9733    41.666587    41.666587    83.333175 
   13000    1256.8265   -24230.708   -25530.206    211.18312    182.65133   -329.80438    780.70242    41.667568    41.667568    83.335136 
   13100    1261.4647   -24229.657   -25533.951   -87.958095    222.41154   -300.46519   -185.82063    41.668268    41.668268    83.336535 
   13200    1257.9445    -24228.55   -25529.204    344.68159    512.27596    227.72881    294.04001    41.668857    41.668857    83.337713 
   13300    1253.4948   -24227.328   -25523.381    338.25712   -350.89171    715.34108    650.32199    41.670368    41.670368    83.340736 
   13400    1253.8329   -24226.125   -25522.528    300.54017    -628.4949    997.53762    532.57778    41.671861    41.671861    83.343722 
   13500    1267.1671   -24224.961   -25535.151   -112.20375   -803.07543    1087.5118   -621.04766    41.672894    41.672894    83.345787 
   13600    1268.7882   -24223.847   -25535.713   -194.57284    284.54873   -467.64505    -400.6222    41.673218    41.673218    83.346437 
   13700    1267.9045   -24222.868   -25533.821   -153.88546   -241.28451    397.70942   -618.08127    41.672363    41.672363    83.344727 
   13800     1283.019   -24221.897   -25548.477   -498.70094   -135.69614   -697.94804   -662.45864    41.671075    41.671075     83.34215 
   13900    1276.9524   -24221.009   -25541.317   -95.523055   -197.27319    289.33051   -378.62648    41.669107    41.669107    83.338214 
   14000    1272.7596   -24220.119   -25536.091   -34.090765   -129.35932   -764.03446    791.12149    41.667737    41.667737    83.335475 
   14100    1277.6648   -24219.227   -25540.271   -61.353159    74.489238      61.0608   -319.60951    41.667127    41.667127    83.334253 
   14200    1273.5504   -24218.336   -25535.126   -3.4635579    209.42498   -195.84044   -23.975205    41.667245    41.667245     83.33449 
   14300    1268.0362   -24217.512     -25528.6    127.95931    203.92188    44.814343    135.14172    41.667959    41.667959    83.335917 
   14400    1279.9504   -24216.698   -25540.105   -7.2481707    474.36478    6.4696039   -502.57889    41.669374    41.669374    83.338748 
   14500    1274.7609   -24215.848    -25533.89    12.495248     236.2922    73.520761   -272.32722     41.67212     41.67212    83.344241 
   14600    1265.1233   -24214.989   -25523.066    116.21974   -20.397665   -432.47153     801.5284    41.675473    41.675473    83.350947 
   14700    1257.5815   -24213.995   -25514.274    169.72422    294.31835   -708.52706    923.38136      41.6796      41.6796      83.3592 
   14800    1283.9505   -24212.832   -25540.375   -632.72254   -296.75831   -693.85168   -907.55762     41.68435     41.68435      83.3687 
   14900    1256.9156   -24211.726   -25511.316   -117.63561   -29.349557   -115.88648    -207.6708    41.687519    41.687519    83.375039 
   15000    1263.7575   -24210.543   -25517.208   -394.07402   -190.77404   -89.429604   -902.01843    41.689462    41.689462    83.378924 
   15100    1255.2753    -24209.32   -25507.214   -346.99119   -771.82519   -365.29327    96.144893    41.689819    41.689819    83.379637 
   15200    1275.1069   -24208.015   -25526.414   -409.82071    655.48739   -1019.7967   -865.15281     41.68853     41.68853     83.37706 
   15300    1269.3123   -24206.746   -25519.154   -85.552261   -92.065079   -444.86478    280.27308    41.685787    41.685787    83.371575 
   15400    1268.1967   -24205.515   -25516.769   -17.552905    225.26457   -345.46592    67.542638    41.682661    41.682661    83.365322 
   15500    1257.8519   -24204.324   -25504.882    370.15245   -70.799122    516.03327    665.22321    41.679687    41.679687    83.359374 
   15600    1272.7799   -24203.229   -25519.222    227.26488    611.10243    808.52006   -737.82786    41.677263    41.677263    83.354527 
   15700    1269.7444   -24202.233   -25515.087    393.26472    311.07464    371.28721    497.43233    41.675766    41.675766    83.351533 
   15800    1279.3029    -24201.22   -25523.958    289.94347    165.06012    967.62346   -262.85317    41.676543    41.676543    83.353086 
   15900    1275.6176   -24200.275   -25519.202    93.397382    97.804995    696.66794   -514.28079    41.678941    41.678941    83.357882 
   16000    1282.5444   -24199.475   -25525.564   -154.52128   -924.15857    127.54949    333.04523    41.681762    41.681762    83.363525 
   16100    1264.0706   -24198.882    -25505.87    259.03563    278.87295    435.96554     62.26839    41.684093    41.684093    83.368187 
   16200    1259.8018   -24198.319   -25500.893    42.080386    141.66901    53.809699   -69.237553    41.686607    41.686607    83.373214 
   16300    1255.5661    -24197.71   -25495.905    350.20922    1017.8568     23.61778    9.1530406     41.68864     41.68864     83.37728 
   16400    1270.4154    -24196.97   -25510.519   -238.13394   -119.50795   -467.40032   -127.49354     41.69115     41.69115      83.3823 
   16500    1261.4661    -24196.21   -25500.506   -67.561964    -152.4862    207.61717   -257.81686    41.692899    41.692899    83.385798 
   16600    1275.6464   -24195.435   -25514.392   -410.86467   -354.06315   -172.33012   -706.20075    41.693783    41.693783    83.387566 
   16700    1273.4177   -24194.639   -25511.292   -196.74376   -286.50466    135.34682   -439.07346    41.693593    41.693593    83.387186 
   16800    1277.8426   -24193.889   -25515.117   -324.75312   -746.04169    426.58559   -654.80327    41.692258    41.692258    83.384516 
   16900    1266.0539   -24193.188   -25502.226    101.83351   -222.59152    785.69745   -257.60541    41.690106    41.690106    83.380213 
   17000    1266.7219   -24192.461   -25502.191    240.81734    27.112335    1021.2133   -325.87361    41.688375    41.688375     83.37675 
   17100    1260.4604   -24191.765    -25495.02    376.13127     742.7573     858.6377    -473.0012    41.687162    41.687162    83.374324 
   17200    1262.1133    -24190.98   -25495.945    455.39991    446.20836    663.23905    256.75232    41.687309    41.687309    83.374617 
   17300    1267.5298    -24190.14   -25500.704      311.402     397.0999    646.15481    -109.0487    41.688814    41.688814    83.377627 
   17400    1255.0803   -24189.227   -25486.919    463.90006   -87.940153    974.09572    505.54462    41.691849    41.691849    83.383697 
   17500    1267.9698   -24188.288   -25499.308    120.47463    396.36112   -194.27221    159.33498    41.695607    41.695607    83.391214 
   17600    1260.0713   -24187.392   -25490.245    183.08528   -157.75647    413.22088    293.79144    41.699386    41.699386    83.398772 
   17700    1268.9014   -24186.395   -25498.378   -337.44961   -215.52855   -1014.5431    217.72287    41.703032    41.703032    83.406064 
   17800    1262.4679   -24185.428   -25490.759   -178.72261   -385.95131    356.98254   -507.19905    41.704921    41.704921    83.409842 
   17900    1274.1117   -24184.386   -25501.756   -597.72474   -156.39528   -871.60577   -765.17317    41.705696    41.705696    83.411391 
   18000    1262.1653   -24183.289   -25488.307   -62.997898   -83.521256    -200.8569    95.384463    41.704987    41.704987    83.409973 
   18100    1238.4778   -24182.139   -25462.666    596.40427    1248.4535    194.19485    346.56445    41.703652    41.703652    83.407304 
   18200    1243.9357   -24180.704   -25466.874    394.78687    575.62005    203.28479    405.45576    41.703742    41.703742    83.407484 
   18300    1261.4365   -24178.985    -25483.25    141.53616     61.23304    688.39453    -325.0191    41.705077    41.705077    83.410155 
   18400    1263.7828   -24177.218   -25483.908   -23.613814   -58.915657    526.88063   -538.80641    41.706702    41.706702    83.413403 
   18500    1266.9293   -24175.617   -25485.561   -184.06714   -676.53871   -62.489942    186.82723    41.707524    41.707524    83.415049 
   18600    1246.1141   -24174.076   -25462.498    419.66757    333.85881    478.11425    447.02966    41.707943    41.707943    83.415887 
   18700    1252.9476   -24172.439   -25467.927    200.53704    261.35954    297.70898    42.542614    41.709167    41.709167    83.418335 
   18800    1256.4729   -24170.813   -25469.946    326.64336      278.577    614.74807     86.60502     41.71049     41.71049     83.42098 
   18900    1254.7665   -24169.139   -25466.507    142.33881    435.21959    161.28371   -169.48685      41.7127      41.7127    83.425401 
   19000     1242.703   -24167.307   -25452.202    440.12657    668.12707    579.72294    72.529708    41.715792    41.715792    83.431584 
   19100    1264.3223   -24165.332    -25472.58   -380.36579   -353.43262   -1069.6886     282.0239    41.719676    41.719676    83.439351 
   19200    1274.6175   -24163.414   -25481.308   -602.90574   -960.24063   -568.61342   -279.86316    41.722317    41.722317    83.444635 
   19300    1238.9444   -24161.459   -25442.468    348.32077    391.99816    190.26784    462.69631    41.723979    41.723979    83.447957 
   19400      1253.11   -24159.446   -25455.102   -94.345024    878.02214   -844.14177   -316.91544    41.725299    41.725299    83.450598 
   19500    1246.2712   -24157.384   -25445.969    186.21741    113.87186    242.18872    202.59166    41.726282    41.726282    83.452565 
   19600    1248.1998   -24155.265   -25445.844    33.120541    248.10424    104.19935   -252.94196     41.72736     41.72736     83.45472 
   19700    1252.7239   -24153.169   -25448.425   -74.410552   -266.01885    529.69513   -486.90794    41.728129    41.728129    83.456259 
   19800    1250.2564   -24151.098   -25443.803    105.50697    293.50801   -253.11064    276.12354    41.728747    41.728747    83.457493 
   19900    1252.9221    -24149.04   -25444.501   -9.3792935    829.34144   -237.89846   -619.58087    41.729718    41.729718    83.459437 
   20000    1259.9888    -24146.95   -25449.718   -207.20125    -65.76316   -1250.1542    694.31367    41.731368    41.731368    83.462736 
   20100    1247.9532   -24144.903   -25435.226    202.00991   -79.352362    535.40078    149.98132    41.732975    41.732975    83.465949 
   20200    1237.0931   -24142.944   -25422.039    348.27162    517.09568   -239.24073    766.95991    41.734637    41.734637    83.469274 
   20300    1269.3561    -24140.89   -25453.343   -503.64937   -730.62444   -293.92058   -486.40307    41.737006    41.737006    83.474011 
   20400    1262.5409   -24138.954   -25444.361   -310.03541   -249.03971   -566.49922   -114.56729    41.738494    41.738494    83.476988 
   20500    1252.5295   -24136.992   -25432.047    115.67262   -64.228011   -474.07052    885.31639    41.740182    41.740182    83.480365 
   20600     1252.095   -24134.861   -25429.467    95.849991     267.1149   -214.29974     234.7348    41.743147    41.743147    83.486294 
   20700    1244.8328   -24132.599   -25419.696   -117.21262    417.93372    -652.8293   -116.74227    41.746648    41.746648    83.493296 
   20800    1235.7889    -24130.16   -25407.907    184.66913   -29.783048    497.11284    86.677598    41.750342    41.750342    83.500683 
   20900    1227.6744   -24127.579   -25396.935    484.95022     2018.422   -265.39041   -298.18087    41.754549    41.754549    83.509099 
   21000     1240.202   -24124.878   -25407.188   -163.02763   -305.62009    148.79875   -332.26155    41.759397    41.759397    83.518794 
   21100    1252.2775   -24122.347   -25417.142   -724.97435    -809.5238   -741.08043   -624.31881    41.762261    41.762261    83.524522 
   21200    1257.5185   -24119.769   -25419.983    -672.1708    49.621993   -1592.1955   -473.93889    41.763727    41.763727    83.527454 
   21300    1231.0521   -24117.254   -25390.103    150.86187    847.43286   -571.52714     176.6799    41.763923    41.763923    83.527846 
   21400    1249.6251   -24114.734   -25406.786   -134.11945   -738.42172    81.647999    254.41538    41.763787    41.763787    83.527574 
   21500    1248.6135   -24112.235   -25403.241    35.021087    163.67197   -295.81182    237.20311    41.763495    41.763495     83.52699 
   21600    1231.6222   -24109.808   -25383.246    449.92871    263.49028    524.48017    561.81569    41.763635    41.763635     83.52727 
   21700    1241.6824   -24107.275   -25391.115    62.218017   -127.01198    519.51333    -205.8473      41.7652      41.7652    83.530401 
   21800    1232.7125   -24104.733   -25379.298    325.17379     489.1792   -360.81412     847.1563    41.767382    41.767382    83.534764 
   21900    1219.9078   -24102.067   -25363.393    377.33441     1463.959   -375.73189    43.776127    41.771054    41.771054    83.542107 
   22000    1221.3805    -24099.17   -25362.018    326.72893    814.24795   -103.13005    269.06888     41.77633     41.77633    83.552659 
   22100    1222.9034   -24096.079   -25360.503    152.21485    519.35595   -557.50808    494.79668    41.782958    41.782958    83.565916 
   22200    1219.3945   -24092.876   -25353.671   -69.343864   -879.18417   -349.63939     1020.792    41.790192    41.790192    83.580383 
   22300    1220.2097   -24089.519   -25351.157    -305.0712   -1123.1709    521.76116   -313.80392    41.796863    41.796863    83.593726 
   22400    1212.9841   -24086.199   -25340.367    64.893125   -781.16325    739.43083    236.41179    41.801971    41.801971    83.603942 
   22500    1214.6487   -24082.775   -25338.663   -235.53365   -474.09819   -642.92961    410.42685    41.806818    41.806818    83.613636 
   22600    1227.8707   -24079.289   -25348.848   -677.73268   -1224.8015   -401.49632   -406.90021    41.810574    41.810574    83.621149 
   22700    1206.4943   -24075.947   -25323.404    89.683025    281.26786   -300.12236    287.90357    41.811645    41.811645     83.62329 
   22800    1192.9129   -24072.629   -25306.044     309.0351    515.64069    -47.61142    459.07603    41.811089    41.811089    83.622179 
   22900    1213.4413   -24069.254   -25323.894    211.55244    202.27779    595.57546   -163.19593    41.810081    41.810081    83.620162 
   23000    1214.5587     -24065.8   -25321.595    233.24479   -185.82498    591.20049    294.35888    41.810439    41.810439    83.620879 
   23100    1211.7108   -24062.219    -25315.07    124.14267    768.20486   -743.28036    347.50351    41.813028    41.813028    83.626056 
   23200    1197.3751   -24058.615   -25296.643    457.05877    777.07951    518.65087    75.445932    41.816732    41.816732    83.633464 
   23300    1218.4851   -24054.882   -25314.737    -115.6203   -223.83914    -251.5315    128.50973    41.821676    41.821676    83.643352 
   23400    1194.3737   -24051.153   -25286.078    452.70614   -209.83608    557.23978    1010.7147    41.826676    41.826676    83.653352 
   23500    1206.0559   -24047.429   -25294.433   -173.60556     -375.931   -657.98921    513.10352    41.832019    41.832019    83.664038 
   23600    1198.9079   -24043.673   -25283.286    217.91766    86.772756   -187.91799    754.89821     41.83716     41.83716    83.674321 
   23700    1193.7978   -24039.801    -25274.13    106.43144   -178.65704   -534.69253    1032.6439    41.842735    41.842735    83.685469 
   23800    1197.4562   -24035.821   -25273.933   -165.22648   -652.35742   -753.58915    910.26712      41.8484      41.8484      83.6968 
   23900    1176.9091   -24031.779   -25248.647    373.19308   -130.46878    731.27972     518.7683    41.853616    41.853616    83.707232 
   24000    1191.9139   -24027.674   -25260.056   -63.843422   -88.648752   -321.27233    218.39081    41.858776    41.858776    83.717552 
   24100    1190.0455   -24023.511   -25253.961   -221.71193   -1268.3345   -662.49301    1265.6917    41.863539    41.863539    83.727078 
   24200    1182.9671   -24019.333   -25242.464    56.906173    29.095657    -306.1694    447.79226    41.867161    41.867161    83.734323 
   24300    1174.9557   -24015.074   -25229.921    289.28934    173.50556    -107.0591    801.42155    41.870879    41.870879    83.741758 
   24400    1183.1915   -24010.677    -25234.04   -195.82783   -511.60146   -577.01021    501.12819    41.875421    41.875421    83.750841 
   24500    1180.9814   -24006.193   -25227.271   -181.14909    925.18651   -923.98982   -544.64395    41.879691    41.879691    83.759382 
   24600    1167.0808   -24001.698   -25208.404    114.15118    412.29989    490.85606   -560.70239    41.883308    41.883308    83.766617 
   24700    1171.9889   -23997.082   -25208.862    84.895004    1209.5287   -809.60237   -145.24132    41.886986    41.886986    83.773971 
   24800    1165.1339   -23992.351   -25197.044   -111.77783   -1228.3243    737.36097    155.62984    41.891167    41.891167    83.782334 
   24900    1163.2997   -23987.573   -25190.369    500.79154    692.13895    813.30067    -3.065016      41.8952      41.8952    83.790399 
   25000    1167.9732   -23982.716   -25190.345   -156.66353   -376.56437    -1522.578    1429.1518    41.901098    41.901098    83.802196 
   25100    1171.5249   -23977.827   -25189.128   -562.70432   -1126.0646   -660.60851    98.560182    41.907488    41.907488    83.814975 
   25200    1151.9309   -23972.926   -25163.967    464.55919    65.110111    238.20198    1090.3655    41.912566    41.912566    83.825133 
   25300    1161.9353   -23967.936   -25169.321    185.79759   -148.79091    497.79587    208.38782     41.91841     41.91841    83.836821 
   25400    1150.4632   -23962.861   -25152.385   -36.170232   -563.68159    604.42125   -149.25035    41.924717    41.924717    83.849434 
   25500    1168.2846   -23957.777   -25165.728    -809.7686   -1043.3601   -418.76515   -967.18057    41.930335    41.930335     83.86067 
   25600    1174.0792   -23952.732   -25166.673   -540.47481   -208.32298   -670.86039   -742.24107    41.933727    41.933727    83.867454 
   25700    1149.6681    -23947.71   -25136.412    68.367205    367.16863   -213.22142    51.154409    41.935704    41.935704    83.871408 
   25800    1163.9195   -23942.663     -25146.1   -12.722964   -39.693901   -103.23715    104.76216    41.937067    41.937067    83.874135 
   25900    1149.7757   -23937.629   -25126.442    282.11133    48.624782     730.9394    66.769794    41.938408    41.938408    83.876816 
   26000    1167.2207   -23932.568   -25139.418    9.4394706   -298.84948   -441.29449    768.46239    41.940638    41.940638    83.881277 
   26100    1161.7424   -23927.489   -25128.675    78.123612    99.050316   -625.89627    761.21679    41.943969    41.943969    83.887939 
   26200    1168.9585   -23922.462   -25131.108   -200.56442    401.88132   -411.33129   -592.24329     41.94788     41.94788     83.89576 
   26300    1151.8744   -23917.412   -25108.395    509.74611    1090.7362    171.86962    266.63251    41.952153    41.952153    83.904306 
   26400    1152.1557   -23912.312   -25103.586    29.197631    740.26605   -631.54676     -21.1264    41.957668    41.957668    83.915335 
   26500    1152.3497   -23907.151   -25098.625     69.08249    729.14248   -740.90438    219.00937    41.963458    41.963458    83.926916 
   26600    1167.1811   -23902.017   -25108.826   -504.36796   -1056.7044    115.39587   -571.79538    41.969305    41.969305     83.93861 
   26700    1157.1761   -23896.994   -25093.459    92.948846   -245.06575    -238.7063    762.61858    41.973422    41.973422    83.946844 
   26800    1152.7113    -23892.01   -25083.858    224.21015    200.01669     585.4415   -112.82775    41.977399    41.977399    83.954799 
   26900    1147.7782   -23886.908   -25073.655    327.19879    643.95477   -31.126539    368.76813    41.982049    41.982049    83.964098 
   27000    1149.1342   -23881.735   -25069.885   -243.05561   -55.217703   -324.43631   -349.51282    41.986811    41.986811    83.973622 
   27100    1149.7509   -23876.514   -25065.301     150.7106    299.09473    855.72689   -702.68981    41.990438    41.990438    83.980876 
   27200    1155.7172   -23871.368   -25066.324    84.060166    535.43992   -94.630148   -188.62928    41.993274    41.993274    83.986549 
   27300    1157.3088   -23866.224   -25062.826   -159.68397   -137.73594   -289.48058    -51.83538    41.996015    41.996015    83.992029 
   27400    1170.6435   -23861.125   -25071.514   -405.95317    -519.8018   -772.68362    74.625912     41.99834     41.99834     83.99668 
   27500    1174.3345   -23856.123   -25070.329   -378.14511   -132.12086   -1053.4521    51.137617     41.99963     41.99963     83.99926 
   27600    1169.9275   -23851.232   -25060.881   -45.655051   -177.30505    210.64869    -170.3088    42.000022    42.000022    84.000045 
   27700    1175.6774    -23846.34   -25061.934    -3.899024     71.42575   -233.93677    150.81394    42.000823    42.000823    84.001646 
   27800    1178.9551   -23841.499   -25060.482    -127.8275   -213.56377   -487.62479    317.70607    42.002197    42.002197    84.004395 
   27900    1181.5143   -23836.655   -25058.284    119.16637    39.948629     244.7702    72.780275    42.003969    42.003969    84.007938 
   28000    1166.5809   -23831.877   -25038.065    112.10786   -220.62906    506.63484    50.317799    42.006491    42.006491    84.012981 
   28100    1175.0315   -23827.109   -25042.035    118.04711    264.86734    202.22084   -112.94687     42.00953     42.00953     84.01906 
   28200    1182.6047    -23822.39   -25045.146   -150.73955   -650.76655   -295.84522    494.39313    42.013219    42.013219    84.026438 
   28300    1186.3679   -23817.718   -25044.366    10.638193   -38.631205    453.60703   -383.06125    42.017131    42.017131    84.034263 
   28400    1165.5587   -23813.118    -25018.25    526.67037    723.67313   -435.08785    1291.4258    42.021136    42.021136    84.042272 
   28500    1190.3711   -23808.474    -25039.26   -294.78452    9.1239881    182.02866   -1075.5062    42.025934    42.025934    84.051869 
   28600    1184.6193   -23803.805   -25028.645   -430.28169     28.95531   -113.55025   -1206.2501    42.030504    42.030504    84.061008 
   28700    1169.5389   -23799.232   -25008.479    81.397958   -276.69609    444.88179    76.008181    42.033706    42.033706    84.067412 
   28800    1179.5378   -23794.648   -25014.233    72.760576   -34.703542    375.97725   -122.99198    42.036394    42.036394    84.072787 
   28900    1184.8485   -23790.092   -25015.168   -204.85756   -289.66314   -36.955078   -287.95444    42.039267    42.039267    84.078534 
   29000    1168.7033   -23785.545   -24993.928    335.65433    98.142994    893.30202    15.517994    42.042448    42.042448    84.084896 
   29100      1192.84   -23780.929   -25014.268    -151.1919   -312.44899    276.93055   -418.05727    42.046331    42.046331    84.092663 
   29200    1195.7281   -23776.502   -25012.827   -16.564404   -446.58754    577.24533   -180.35099    42.049556    42.049556    84.099113 
   29300    1185.2032   -23772.136   -24997.579   -171.75155    1359.5094     -190.912    -1683.852    42.052659    42.052659    84.105318 
   29400    1190.0059   -23767.854   -24998.262    -135.0741     229.8069     -1149.76    514.73083    42.054509    42.054509    84.109018 
   29500    1191.0733   -23763.595   -24995.108   -129.62362    90.314762   -370.89801    -108.2876    42.055547    42.055547    84.111094 
   29600     1191.939   -23759.354   -24991.762   -100.08128    88.479055   -1469.4156    1080.6927    42.055505    42.055505    84.111011 
   29700    1203.1575   -23755.172   -24999.179   -357.28921   -233.38271   -1052.9601    214.47518    42.054394    42.054394    84.108788 
   29800    1213.1769   -23751.095   -25005.461   -72.866001   -31.427728    25.891992   -213.06227    42.052375    42.052375    84.104749 
   29900    1206.6054   -23747.153   -24994.725    93.141271     1479.344   -1291.9993      92.0791    42.050506    42.050506    84.101011 
   30000    1206.4683   -23743.259   -24990.689    356.56416    1300.3315   -251.69378    21.054724    42.050116    42.050116    84.100231 
   30100    1209.2517   -23739.429   -24989.737     119.6599   -506.35423    383.67681    481.65712    42.051509    42.051509    84.103018 
   30200    1203.7603   -23735.693   -24980.323    605.01834    803.94029    1061.8241   -50.709376    42.054108    42.054108    84.108215 
   30300    1220.6193   -23731.916   -24993.978    193.76676    176.13938    37.756334    367.40457       42.059       42.059       84.118 
   30400    1212.5489   -23728.286   -24982.003    131.50762    410.39434    172.92087   -188.79236    42.064721    42.064721    84.129442 
   30500    1218.7306   -23724.702   -24984.811    -170.7327   -90.442738   -172.38993   -249.36544    42.070852    42.070852    84.141703 
   30600    1212.6758   -23721.158   -24975.006   -121.13409   -1465.8522    340.20397    762.24593    42.075961    42.075961    84.151923 
   30700      1210.63   -23717.626   -24969.359   -312.85027   -817.62558   -280.30204    159.37681    42.079634    42.079634    84.159268 
   30800    1197.7564   -23714.056   -24952.478    64.421059    -592.9827   -688.19513     1474.441    42.081552    42.081552    84.163104 
   30900    1204.6942   -23710.446   -24956.042    32.776261    607.17499   -439.79622   -69.049984    42.082579    42.082579    84.165159 
   31000    1210.4269   -23706.789   -24958.312   -52.597093    268.06818   -320.07978   -105.77968    42.083684    42.083684    84.167369 
   31100    1225.1078   -23703.191   -24969.893    -298.0483    58.827808   -621.34395   -331.62877    42.084048    42.084048    84.168097 
   31200    1231.9033   -23699.771   -24973.499   -455.27154    424.26315   -997.06371   -793.01404    42.083177    42.083177    84.166353 
   31300    1218.2545   -23696.509   -24956.125    107.81608    1021.7181    -102.6763   -595.59354    42.081611    42.081611    84.163221 
   31400    1226.1558   -23693.182   -24960.968    22.104588    723.94073   -912.03515    254.40819    42.081506    42.081506    84.163013 
   31500    1222.3921   -23689.912   -24953.807    175.21484     632.8531    126.86866   -234.07724    42.082281    42.082281    84.164562 
   31600    1225.6716   -23686.683   -24953.969    258.81694    1859.6669   -1181.4799    98.263742     42.08417     42.08417     84.16834 
   31700     1228.161   -23683.506   -24953.365    61.429892    817.73637    70.587281   -704.03398    42.087665    42.087665    84.175329 
   31800    1225.5513    -23680.43   -24947.591    91.824953     540.9979   -346.58121    81.058165    42.091655    42.091655     84.18331 
   31900    1227.7664   -23677.399   -24946.851   -154.65407   -529.07554   -160.83633    225.94965    42.095572    42.095572    84.191144 
   32000    1228.1915   -23674.483   -24944.374   -69.598669   -301.49068    602.68964   -509.99496     42.09836     42.09836    84.196721 
   32100    1220.0883   -23671.536   -24933.048    285.13878    1166.6981   -135.06852   -176.21325    42.101156    42.101156    84.202313 
   32200    1225.7199   -23668.475    -24935.81   -102.45727    223.74269   -939.79221     408.6777    42.104275    42.104275    84.208551 
   32300    1231.1134   -23665.389   -24938.301   -185.28181   -113.21173   -183.20544   -259.42826    42.106548    42.106548    84.213096 
   32400    1225.7225   -23662.368   -24929.706    274.03275    -38.55864    1028.8586   -168.20173    42.107912    42.107912    84.215824 
   32500     1241.577   -23659.413   -24943.144   -148.80543     87.04233    11.226694   -544.68531    42.109345    42.109345    84.218689 
   32600    1240.5599   -23656.566   -24939.245   -201.85998   -453.09664    -274.9515    122.46819    42.110262    42.110262    84.220524 
   32700    1222.3727   -23653.812   -24917.687    284.70085   -163.43698    393.73329    623.80624    42.110557    42.110557    84.221114 
   32800    1237.2121   -23651.095   -24930.312    57.246757   -226.00931     298.8441    98.905482    42.110919    42.110919    84.221838 
   32900    1247.9023   -23648.434   -24938.705   -250.58237   -545.64749   -387.94637    181.84676    42.110863    42.110863    84.221726 
   33000    1255.5781   -23645.923    -24944.13   -230.37132   -1419.0987    256.52452    471.46023    42.109885    42.109885     84.21977 
   33100    1241.8871   -23643.488   -24927.539    82.475739   -498.27135    408.35706    337.34151    42.109133    42.109133    84.218265 
   33200    1241.7192   -23641.044   -24924.922    214.22224   -298.57969    12.717642    928.52876    42.109192    42.109192    84.218383 
   33300    1229.7668   -23638.623   -24910.143    649.04315    842.14899    343.12681    761.85364    42.110128    42.110128    84.220257 
   33400    1245.5811    -23636.13   -24924.001    203.08652     358.6705    128.76866     121.8204    42.113306    42.113306    84.226613 
   33500    1241.7281   -23633.662   -24917.549   -127.02621   -99.030057   -739.69267    457.64409     42.11735     42.11735    84.234699 
   33600     1239.714   -23631.231   -24913.036   -211.83374   -303.40847     565.8216   -897.91434    42.121112    42.121112    84.242223 
   33700    1251.3353   -23628.845   -24922.666   -383.95053   -1042.9765    511.05901   -619.93405    42.123851    42.123851    84.247702 
   33800    1251.8578   -23626.562   -24920.923   -287.09657   -784.64647    577.30635    -653.9496    42.124838    42.124838    84.249675 
   33900    1260.3121    -23624.46   -24927.562   -423.76139   -241.60841   -718.02456   -311.65119    42.123831    42.123831    84.247662 
   34000    1245.3328   -23622.482   -24910.097    296.94232    173.10675    419.67006    298.05014    42.121752    42.121752    84.243505 
   34100    1255.2504   -23620.549   -24918.417   -40.600314    167.43895   -595.98596    306.74606    42.120346    42.120346    84.240692 
   34200    1248.2186   -23618.694   -24909.292    557.59321    440.41459    316.40916    915.95586    42.119296    42.119296    84.238592 
   34300    1255.1722    -23616.83   -24914.618    327.68293     86.07895    672.05495    224.91491    42.120136    42.120136    84.240271 
   34400    1254.0932   -23614.956   -24911.628    51.386035    40.705817   -159.25962     272.7119    42.122241    42.122241    84.244481 
   34500    1257.9235   -23613.021   -24913.653   -54.286375    186.61407    410.19886   -759.67205    42.125104    42.125104    84.250208 
   34600    1245.3604   -23611.118    -24898.76    292.02056    380.02696   -258.56856    754.60326     42.12811     42.12811     84.25622 
   34700    1262.8609     -23609.2   -24914.937   -89.633569   -195.91145   -493.26713    420.27787    42.131712    42.131712    84.263423 
   34800    1259.4503   -23607.383   -24909.594   -60.531268    757.42513   -1220.8286    281.80962    42.134867    42.134867    84.269734 
   34900    1258.2671   -23605.625   -24906.613   -163.91193    294.11752   -67.002203    -718.8511    42.137146    42.137146    84.274291 
   35000    1256.7314    -23603.91    -24903.31   -208.42155    -568.2844    399.73531   -456.71555    42.138111    42.138111    84.276221 
   35100    1260.7711   -23602.243    -24905.82   -56.608291    330.87121    -93.66287   -407.03321    42.137781    42.137781    84.275561 
   35200    1259.2225   -23600.547   -24902.523   -30.506521    352.74562   -167.62656   -276.63862    42.137438    42.137438    84.274876 
   35300    1261.6088   -23598.758   -24903.201   -128.44574   -128.25812    973.70113   -1230.7802    42.137624    42.137624    84.275247 
   35400    1268.2603   -23596.995   -24908.315   -101.35235    283.08944    321.16264   -908.30911    42.137755    42.137755     84.27551 
   35500     1275.398   -23595.305   -24914.006   -283.19215   -885.89712   -86.152592    122.47326    42.138027    42.138027    84.276054 
   35600    1265.5464   -23593.693   -24902.207   -19.660793   -152.08822   -957.61868    1050.7245    42.138361    42.138361    84.276721 
   35700     1259.407   -23592.065   -24894.232    169.80166   -180.53567    249.33959    440.60107    42.139705    42.139705     84.27941 
   35800    1249.8904   -23590.495   -24882.822    272.78645    2.5636173    952.17772   -136.38198    42.141569    42.141569    84.283137 
   35900    1270.6999   -23588.944   -24902.786   -216.84394    202.54222    135.28977   -988.36382    42.143535    42.143535    84.287071 
   36000    1267.1352   -23587.497   -24897.654   -105.07073    174.51481    212.67253   -702.39953    42.144843    42.144843    84.289687 
   36100    1259.7987   -23586.103   -24888.675    105.97687   -390.93567    182.20452    526.66177    42.145768    42.145768    84.291535 
   36200    1276.8202   -23584.686   -24904.857   -376.90285   -1172.8418    477.01879   -434.88555     42.14711     42.14711     84.29422 
   36300    1269.6775   -23583.303   -24896.088   -178.29809   -41.187147   -113.58755   -380.11956    42.148222    42.148222    84.296444 
   36400    1269.3683   -23581.916   -24894.382   -308.95752    537.37432   -756.63947   -707.60741    42.149521    42.149521    84.299042 
   36500    1266.2789   -23580.583   -24889.855   -170.27209    161.89446    232.75425   -905.46498    42.150285    42.150285     84.30057 
   36600    1251.0467   -23579.325   -24872.848    248.36059    369.62808    849.14821   -473.69453    42.150073    42.150073    84.300146 
   36700    1256.5697    -23578.15   -24877.382    128.30016   -583.40039   -277.51816     1245.819    42.149689    42.149689    84.299377 
   36800    1279.8639   -23577.004   -24900.321   -184.46382   -628.66809    719.87443    -644.5978     42.14936     42.14936     84.29872 
   36900     1260.811   -23575.961   -24879.579    535.75888    1346.8545      737.273   -476.85089    42.148962    42.148962    84.297925 
   37000    1277.6736   -23574.887    -24895.94   -52.201735   -197.82584    840.03376   -798.81313     42.15009     42.15009    84.300179 
   37100    1260.9143   -23573.829   -24877.553    143.89127    107.04457   -257.81407    582.44331    42.151466    42.151466    84.302933 
   37200    1275.6798   -23572.959   -24891.951   -153.87104    515.51175   -508.00195   -469.12293    42.152161    42.152161    84.304323 
   37300    1280.4406     -23572.2   -24896.114   -227.94076    34.992222   -46.949063   -671.86545    42.152457    42.152457    84.304914 
   37400    1279.3957   -23571.515   -24894.348   -130.10956    478.50459   -439.47885   -429.35443    42.152524    42.152524    84.305049 
   37500    1266.3648   -23570.854   -24880.215    31.598362     266.4378    109.09226   -280.73497    42.152421    42.152421    84.304843 
   37600    1246.7402   -23570.161    -24859.23    655.97845     546.8569    1936.4192   -515.34079    42.152136    42.152136    84.304272 
   37700    1274.8165    -23569.43   -24887.529   -278.96849   -372.15855    454.80249    -919.5494    42.152506    42.152506    84.305011 
   37800    1260.0629   -23568.717   -24871.561    553.83225    1543.4656    686.41845    -568.3873    42.152879    42.152879    84.305757 
   37900     1277.128    -23567.94   -24888.429   -88.407241   -1148.3386    671.08958    212.02734    42.155156    42.155156    84.310311 
   38000    1271.5056   -23567.174    -24881.85    80.846038   -610.45635    391.61554    461.37893     42.15827     42.15827     84.31654 
   38100    1269.0572   -23566.346    -24878.49   -3.4438535   -63.193244   -85.566058    138.42774    42.161921    42.161921    84.323843 
   38200    1273.2562    -23565.41   -24881.896   -451.58191   -473.63726   -975.28256    94.174102    42.166132    42.166132    84.332265 
   38300    1271.2167   -23564.415   -24878.791   -472.13731   -522.97861   -717.03026   -176.40305    42.169508    42.169508    84.339016 
   38400    1281.5539   -23563.499   -24888.564   -935.72655   -1127.3141   -1261.6151   -418.25044    42.170805    42.170805     84.34161 
   38500    1270.4046   -23562.677   -24876.214   -332.08278    256.83209   -1090.0243   -163.05613    42.168803    42.168803    84.337607 
   38600    1275.5137   -23561.952   -24880.772   -545.94259   -692.91716   -1608.6507    663.74007    42.164308    42.164308    84.328617 
   38700    1269.5338   -23561.303    -24873.94    176.61541    78.624334    367.31858    83.903315     42.15862     42.15862     84.31724 
   38800    1268.9005    -23560.62   -24872.602    11.246432   -747.94652   -282.19033    1063.8761    42.153975    42.153975     84.30795 
   38900    1276.1437   -23560.027   -24879.498    401.09016    844.72707   -213.85221    572.39562    42.149381    42.149381    84.298762 
   39000    1274.3688   -23559.532   -24877.168    669.26665    1048.6289     804.5026    154.66848    42.146612    42.146612    84.293224 
   39100    1274.2313    -23559.13   -24876.624     539.3994    1098.0225     709.2844   -189.10868      42.1466      42.1466      84.2932 
   39200      1270.79   -23558.773   -24872.708    425.14542    642.31092    712.81505   -79.689714     42.14896     42.14896     84.29792 
   39300    1273.6744   -23558.436   -24875.354    193.47206    1303.9597   -426.28142   -297.26207    42.153688    42.153688    84.307375 
   39400     1277.376   -23558.117   -24878.863   -195.46866    961.99062   -147.02524   -1401.3714    42.159226    42.159226    84.318453 
   39500    1287.7462   -23557.805   -24889.272   -568.62806    65.197096   -1122.5258   -648.55551    42.164045    42.164045    84.328091 
   39600    1279.6576   -23557.574   -24880.679   -468.69138   -175.85234   -861.83091   -368.39089    42.167422    42.167422    84.334843 
   39700    1281.7385   -23557.433   -24882.689   -481.14428    278.07509   -600.19688   -1121.3111    42.169119    42.169119    84.338237 
   39800    1291.1038   -23557.295   -24892.234   -801.20981   -162.67528   -1364.6963   -876.25785    42.169478    42.169478    84.338957 
   39900    1273.4707   -23557.224   -24873.932    8.2035159    69.888871   -13.144607   -32.133716    42.167895    42.167895    84.335789 
   40000    1272.9523   -23557.057   -24873.228   -336.81366   -123.60337    49.176174    -936.0138    42.166342    42.166342    84.332684 
   40100     1280.339   -23556.747   -24880.556   -456.36961   -86.991401   -516.96546   -765.15197    42.164233    42.164233    84.328466 
   40200    1273.0202   -23556.459     -24872.7  -0.16117418    287.39559    225.90569    -513.7848    42.161327    42.161327    84.322655 
   40300    1285.5268   -23556.163   -24885.336   -303.04208     -327.052    369.42599   -951.50025    42.159096    42.159096    84.318193 
   40400    1267.5496    -23555.95   -24866.536    566.88668    624.36818    382.27497    694.01688    42.156909    42.156909    84.313818 
   40500    1274.5755   -23555.729   -24873.579    512.40844    1073.5421    -218.0455    681.72873    42.156506    42.156506    84.313012 
   40600    1269.4343   -23555.589   -24868.123    582.30514    245.41641    555.06652    946.43247    42.157843    42.157843    84.315686 
   40700    1279.5625    -23555.34   -24878.346   -37.348586    471.91889   -219.07042   -364.89422    42.161549    42.161549    84.323097 
   40800    1278.3874   -23555.207   -24876.998   -38.278464   -460.79812    963.17308   -617.21034    42.165014    42.165014    84.330028 
   40900    1282.3921   -23555.059   -24880.991    -326.8297    208.83464   -544.62741   -644.69632    42.168708    42.168708    84.337416 
   41000    1264.5837   -23554.894   -24862.412    70.977538    836.72389   -224.66369   -399.12759    42.171804    42.171804    84.343608 
   41100    1266.0641   -23554.688   -24863.737   -158.47817    682.54625   -481.52021   -676.46055    42.173705    42.173705     84.34741 
   41200    1274.4603   -23554.447   -24872.177   -386.92878    401.03617   -206.56704   -1355.2555    42.173565    42.173565     84.34713 
   41300     1269.144   -23554.222   -24866.456   -85.178498    805.49695    -241.5946   -819.43785    42.171456    42.171456    84.342912 
   41400    1281.6592   -23553.959   -24879.133   -140.45512   -727.04315   -359.70723    665.38502    42.168831    42.168831    84.337661 
   41500    1281.7549   -23553.789   -24879.061   -286.69146   -118.63159   -430.67388    -310.7689    42.165353    42.165353    84.330705 
   41600    1271.3614   -23553.666   -24868.193     231.3851    103.35947    582.68337     8.112466    42.161514    42.161514    84.323028 
   41700    1263.0308   -23553.582   -24859.495    601.69376    100.39433    1194.1552    510.53176    42.158329    42.158329    84.316658 
   41800    1281.5591   -23553.498   -24878.569    410.17448    1318.3259    341.16769   -428.97013    42.156893    42.156893    84.313786 
   41900    1271.5181   -23553.577   -24868.266     164.3058    190.25345    -16.58213    319.24608    42.156745    42.156745    84.313491 
   42000    1277.9436   -23553.742   -24875.074    324.45072   -30.304565    249.83293    753.82379    42.156744    42.156744    84.313488 
   42100    1266.7055   -23553.869   -24863.581    490.40879    475.09178    1147.6275   -151.49294    42.158086    42.158086    84.316173 
   42200    1280.0358   -23553.946   -24877.442    54.278379   -875.36831   -13.626641    1051.8301    42.161146    42.161146    84.322293 
   42300    1284.7418   -23554.027   -24882.388   -263.68716    -601.3411   -15.866009   -173.85437    42.164764    42.164764    84.329528 
   42400    1273.9801   -23554.102   -24871.336   -170.60302   -598.58355    614.80983   -528.03534    42.167865    42.167865     84.33573 
   42500      1263.66   -23554.033   -24860.596   -310.57786   -567.92492   -433.91064    70.101981     42.17074     42.17074     84.34148 
   42600    1275.9259   -23553.961   -24873.207   -359.48427   -1607.3517   -44.083448    572.98232    42.172146    42.172146    84.344292 
   42700    1266.9447   -23553.914   -24863.873    11.523838   -372.70212    331.64622    75.627418    42.172065    42.172065    84.344129 
   42800    1262.7196   -23553.847   -24859.438   -206.26933   -239.82663   -357.98964   -20.991705     42.17094     42.17094    84.341879 
   42900     1267.522   -23553.663    -24864.22   0.03759676    781.09508   -744.07744   -36.904852    42.168862    42.168862    84.337724 
   43000    1279.7573   -23553.342    -24876.55   -111.65703    1688.3532   -1564.2448   -459.07949     42.16682     42.16682     84.33364 
   43100    1293.1024   -23553.063   -24890.068   -774.01055   -22.462826   -1549.2453   -750.32352    42.164137    42.164137    84.328274 
   43200    1272.4332   -23552.913   -24868.548    153.84837    360.29428    -8.948921    110.19976    42.160012    42.160012    84.320024 
   43300    1274.7617   -23552.753   -24870.795    2.3518772   -428.69556     332.0577    103.69349    42.156998    42.156998    84.313996 
   43400     1254.334    -23552.63   -24849.551     882.3739   -112.98445    1093.0651     1667.041    42.154848    42.154848    84.309696 
   43500     1281.559   -23552.347   -24877.417    242.86934   -918.26395    109.92214    1536.9498    42.156071    42.156071    84.312141 
   43600    1287.4055   -23552.179   -24883.294   -144.85501   -1321.0652    1064.0675   -177.56732    42.158449    42.158449    84.316898 
   43700     1263.083   -23552.059   -24858.026     505.7717    833.57059     749.6109   -65.866405    42.161376    42.161376    84.322752 
   43800    1268.2866   -23551.915   -24863.263    347.33174    106.76694    816.66228      118.566     42.16552     42.16552     84.33104 
   43900     1275.062   -23551.761   -24870.114   -410.39549   -242.55647    -389.2217    -599.4083    42.170545    42.170545     84.34109 
   44000    1277.8197    -23551.63   -24872.834   -249.96296    619.66112   -622.88478   -746.66522    42.174222    42.174222    84.348445 
   44100    1269.7665   -23551.485   -24864.362   -27.939138    232.59561   -114.11626   -202.29676    42.177168    42.177168    84.354337 
   44200     1272.395   -23551.326   -24866.921   -539.12889   -17.261292     236.9146     -1837.04    42.179553    42.179553    84.359106 
   44300    1275.8239   -23551.186   -24870.326   -503.96659   -1391.6835   -470.43572    350.21942    42.179129    42.179129    84.358258 
   44400    1281.5809   -23551.017    -24876.11   -681.64852   -2396.3976   -448.71566    800.16775    42.176673    42.176673    84.353347 
   44500    1260.1597   -23550.931   -24853.875    136.71721    337.28094    570.53709   -497.66641      42.1719      42.1719    84.343801 
   44600    1284.0485   -23550.841   -24878.485   -111.73715   -147.14341   -1119.3491    931.28109    42.166391    42.166391    84.332783 
   44700    1285.6468   -23550.812   -24880.109   -182.70351   -848.97933   -179.85699     480.7258    42.160898    42.160898    84.321795 
   44800    1273.7466   -23550.895   -24867.887    744.05226    445.90736    829.63881    956.61061     42.15586     42.15586     84.31172 
   44900    1285.6018   -23550.967   -24880.218     523.2138     1069.452    396.32295     103.8665     42.15341     42.15341     84.30682 
   45000    1281.9801   -23551.164   -24876.669    354.13938    -111.1902    625.63324    547.97511    42.153423    42.153423    84.306845 
   45100    1284.7104   -23551.439   -24879.768    107.16186   -250.61423    236.11016    335.98965    42.155654    42.155654    84.311307 
   45200    1265.4666   -23551.818    -24860.25    606.84278    570.42305    1584.3598   -334.25447    42.158597    42.158597    84.317193 
   45300    1256.0185   -23552.129   -24850.792    554.45005     208.0166    639.40956    815.92398    42.162815    42.162815    84.325629 
   45400    1275.7253   -23552.328   -24871.367   -98.745562    429.33718   -567.27619   -158.29767     42.16797     42.16797     84.33594 
   45500    1275.5952   -23552.441   -24871.345   -638.68529   -668.89638    531.87235   -1779.0318    42.172475    42.172475     84.34495 
   45600    1273.1183   -23552.523   -24868.866    -295.1627   -33.920591   -765.89565   -85.671844    42.174624    42.174624    84.349248 
   45700    1271.0118   -23552.524   -24866.689   -144.26938   -988.81547    574.49288   -18.485562    42.175169    42.175169    84.350337 
   45800    1269.3138   -23552.518   -24864.927   -459.05501    -897.1257   -323.68503    -156.3543    42.174124    42.174124    84.348248 
   45900    1282.2477   -23552.497    -24878.28   -245.21407   -1690.3893    460.61109    494.13604    42.171138    42.171138    84.342276 
   46000    1282.8968   -23552.458   -24878.911   -229.93775    425.28879   -1247.1162     132.0142    42.167264    42.167264    84.334527 
   46100    1270.7472   -23552.435   -24866.327    274.44184    520.81128    476.55735   -174.04313    42.163152    42.163152    84.326304 
   46200    1268.1851    -23552.41   -24863.653    363.71973    567.82395    430.75562    92.579608    42.160385    42.160385    84.320771 
   46300    1279.8293   -23552.407   -24875.689    199.58085     196.0352   -375.86976     778.5771    42.159182    42.159182    84.318364 
   46400    1281.2508   -23552.378    -24877.13    137.97433   -504.31799   -73.115637    991.35663    42.159363    42.159363    84.318727 
   46500    1282.3117   -23552.358   -24878.206     48.35792    396.02179   -108.95965   -141.98838    42.160325    42.160325    84.320651 
   46600    1267.3715   -23552.456   -24862.857    -20.42108    62.264589   -706.24655    582.71872    42.161159    42.161159    84.322319 
   46700    1279.7035   -23552.554   -24875.706   -288.04013   -1121.7279    233.07248    24.535028    42.161705    42.161705    84.323411 
   46800    1265.8106   -23552.658   -24861.445    550.38794   -563.94522    721.86387    1493.2452    42.162059    42.162059    84.324119 
   46900    1268.2906   -23552.701   -24864.053    86.760228    59.276506    753.63501   -552.63083    42.163521    42.163521    84.327042 
   47000    1269.1031   -23552.763   -24864.955    403.26711     1025.878    97.312122    86.611176    42.164672    42.164672    84.329343 
   47100    1272.0688   -23552.673   -24867.931   -57.725559    860.94677   -107.89133   -926.23212    42.166887    42.166887    84.333774 
   47200    1259.4939    -23552.62   -24854.876    19.091585    688.55079   -165.17935   -466.09669    42.168569    42.168569    84.337139 
   47300    1275.2527   -23552.452   -24871.002   -405.05776   -198.04408    696.76075   -1713.8899    42.169302    42.169302    84.338605 
   47400    1278.5626   -23552.251   -24874.224   -419.20079   -657.33164   -8.3049133   -591.96583    42.168843    42.168843    84.337687 
   47500    1275.4454   -23552.035   -24870.784   -282.40603     50.14861   -261.09223   -636.27446      42.1676      42.1676      84.3352 
   47600    1273.7239   -23551.829   -24868.799   -134.33779    414.46836   -496.66054   -320.82121    42.165484    42.165484    84.330968 
   47700    1271.7233   -23551.696   -24866.596    424.72664   -9.4999066    866.44613    417.23371    42.162983    42.162983    84.325966 
   47800    1277.4268   -23551.554   -24872.351   -60.829847     11.39726    4.2175407   -198.10434    42.162083    42.162083    84.324165 
   47900    1279.9375   -23551.354   -24874.748    -338.4292   -378.63042    126.52927   -763.18647    42.161983    42.161983    84.323966 
   48000    1282.0488   -23551.147   -24876.724    80.940048    417.62872    254.47218   -429.28075     42.16219     42.16219    84.324379 
   48100    1270.3216   -23551.013   -24864.465    256.90262   -265.12598    280.01415    755.81968    42.162837    42.162837    84.325673 
   48200    1283.7225   -23551.022    -24878.33    -228.3722   -710.92892    315.01553    -289.2032    42.163053    42.163053    84.326105 
   48300    1273.4445   -23551.159   -24867.839    106.44133   -305.48998    153.35671    471.45725    42.162734    42.162734    84.325468 
   48400    1288.0196   -23551.308   -24883.058   -318.09447   -1386.8887    85.777023    346.82829    42.163152    42.163152    84.326305 
   48500    1279.3284   -23551.497   -24874.261    205.32395    617.35062   -278.17841    276.79965    42.163522    42.163522    84.327045 
   48600    1285.5869   -23551.748   -24880.983    -375.1985   -463.82696   -838.04276    176.27421     42.16404     42.16404    84.328081 
   48700    1266.8812   -23552.039   -24861.933     480.1493    943.09632   -142.59738    639.94896    42.163748    42.163748    84.327497 
   48800    1279.1598   -23552.285   -24874.874   -190.24915   -595.50945    11.914938    12.847071    42.164363    42.164363    84.328725 
   48900    1282.5015   -23552.618   -24878.663   -147.53703     -724.153   -194.15465    475.69655    42.164077    42.164077    84.328153 
   49000    1287.3143    -23553.08   -24884.101   -57.386625    65.923986    210.58946   -448.67332    42.162921    42.162921    84.325842 
   49100     1283.681    -23553.59   -24880.855    24.694623    571.71266   -183.98725   -313.64154      42.1616      42.1616      84.3232 
   49200    1268.0604   -23554.101   -24865.215    74.033292    240.48665    -402.2065    383.81973    42.160576    42.160576    84.321153 
   49300    1283.0223   -23554.586   -24881.169   -186.34208    274.07112   -245.02053   -588.07683    42.159349    42.159349    84.318698 
   49400    1274.3899   -23555.064   -24872.722    146.72955   -71.926946   -16.214649    528.33025    42.158151    42.158151    84.316303 
   49500    1276.5061   -23555.538   -24875.384    20.085096   -360.63394   -139.59382    560.48306    42.157164    42.157164    84.314328 
   49600    1277.5495   -23555.962   -24876.886    183.80768    1032.5301    682.40408   -1163.5111     42.15668     42.15668    84.313359 
   49700    1285.2094   -23556.299   -24885.144   -71.128397     495.0096   -571.77828   -136.61652    42.157894    42.157894    84.315787 
   49800    1276.6243   -23556.681   -24876.649   -149.39143    777.93076   -771.55197   -454.55308    42.159078    42.159078    84.318157 
   49900     1277.384   -23557.081   -24877.835    203.11807    164.95769     289.2052    155.19133    42.159277    42.159277    84.318554 
   50000    1258.3794   -23557.473   -24858.576    203.11573    515.89294   -218.22332    311.67758    42.159267    42.159267    84.318533 
Loop time of 1416.23 on 1 procs for 50000 steps with 8000 atoms

Pair  time (%) = 1276.47 (90.1319)
Neigh time (%) = 99.1506 (7.00104)
Comm  time (%) = 8.29601 (0.585782)
Outpt time (%) = 0.619752 (0.0437608)
Other time (%) = 31.6879 (2.23749)

Nlocal:    8000 ave 8000 max 8000 min
Histogram: 1 0 0 0 0 0 0 0 0 0
Nghost:    8345 ave 8345 max 8345 min
Histogram: 1 0 0 0 0 0 0 0 0 0
Neighs:    272561 ave 272561 max 272561 min
Histogram: 1 0 0 0 0 0 0 0 0 0

Total # of neighbors = 272561
Ave neighs/atom = 34.0701
Neighbor list builds = 5000
Dangerous builds = 0
unfix		1

# Melt half the system
region  liquid block INF INF INF INF INF ${nzhalf}
region  liquid block INF INF INF INF INF 10
group	liquid_group region liquid
4006 atoms in group liquid_group

# Heat up one side to Tmelt to make sure it is melted
fix 2 liquid_group npt temp ${Tmelt} ${Tmelt} 1 z 0 0 10 drag 1.0
fix 2 liquid_group npt temp 2000 ${Tmelt} 1 z 0 0 10 drag 1.0
fix 2 liquid_group npt temp 2000 2000 1 z 0 0 10 drag 1.0
run		${eqsteps}
run		50000
Memory usage per processor = 5.95825 Mbytes
Step Temp TotEng PotEng Press Pxx Pyy Pzz Lx Ly Lz 
   50000    1258.3794   -23557.473   -24858.576    203.11573    515.89294   -218.22332    311.67758    42.159267    42.159267    84.318533 
   50100    1264.8962   -23555.197   -24863.039    117.21345    287.34659   -105.06957    169.36332    42.159267    42.159267    84.318563 
   50200    1267.4914     -23549.5   -24860.025    167.29033    313.50333   -152.47643    340.84409    42.159267    42.159267    84.318699 
   50300    1275.9471   -23543.044   -24862.312    82.650481    511.79352   -479.57032    215.72824    42.159267    42.159267    84.319048 
   50400    1261.2281   -23537.268   -24841.317    820.08274    1341.1535    332.48828    786.60647    42.159267    42.159267     84.31963 
   50500    1273.3431   -23531.326   -24847.901    648.31728    1836.0326   -11.701057     120.6203    42.159267    42.159267    84.320596 
   50600    1272.8445   -23524.913   -24840.973    855.89011    872.29205    865.91596    829.46232    42.159267    42.159267     84.32175 
   50700    1291.1616   -23518.078   -24853.077    601.81576    1607.7517    -441.2781    638.97369    42.159267    42.159267    84.323141 
   50800     1295.713   -23511.147   -24850.852    718.79114    901.73002    998.46371    256.17969    42.159267    42.159267    84.324817 
   50900    1294.8769   -23504.173   -24843.014    1007.4217    1095.8669    116.27883    1810.1194    42.159267    42.159267    84.326847 
   51000    1280.5176   -23497.045   -24821.039    1541.8583    2162.5171    514.39368    1948.6642    42.159267    42.159267    84.329703 
   51100    1301.3759   -23489.997   -24835.557    1202.6858    1261.1517    533.55187    1813.3539    42.159267    42.159267    84.333427 
   51200    1304.3695   -23482.848   -24831.503    1356.1674    786.35762    1239.5873    2042.5572    42.159267    42.159267     84.33807 
   51300    1308.9779   -23475.677   -24829.097     1463.937    1618.4796    480.89175    2292.4396    42.159267    42.159267    84.343842 
   51400    1300.6794   -23468.474   -24813.314    1796.3885    1498.0727    1439.0361    2452.0567    42.159267    42.159267    84.350857 
   51500    1311.9844   -23461.222   -24817.751    1846.5874    2751.1431    1254.4518    1534.1672    42.159267    42.159267    84.358852 
   51600    1312.1701   -23453.952   -24810.673    1829.8563    3202.1003    1557.3418    730.12689    42.159267    42.159267    84.367372 
   51700    1320.0418   -23446.647   -24811.507    1947.7667    1688.9038    1845.5383    2308.8579    42.159267    42.159267    84.376362 
   51800    1315.6366    -23439.35   -24799.655    2099.9873    2425.5426    1638.3643     2236.055    42.159267    42.159267     84.38644 
   51900    1328.3319   -23432.052   -24805.483    2155.3568     2316.284    1945.5673    2204.2192    42.159267    42.159267    84.397587 
   52000    1329.0968   -23424.661   -24798.883    2176.6538    2049.7009    1935.3777    2544.8827    42.159267    42.159267    84.409737 
   52100     1326.088   -23417.337   -24788.448    2460.4891    2964.0786    2068.4104    2348.9782    42.159267    42.159267    84.423107 
   52200    1322.4737   -23409.981   -24777.355    2281.0792    3293.0353    966.52645    2583.6757    42.159267    42.159267    84.437575 
   52300    1335.1493   -23402.612   -24783.092    2344.3505    2247.9447    2586.4257     2198.681    42.159267    42.159267    84.453059 
   52400    1332.7368   -23395.201   -24773.187    2403.9764    2324.2855    2118.9192    2768.7244    42.159267    42.159267    84.469602 
   52500    1345.5129    -23387.81   -24779.005    2300.9324    2333.8313    1941.9466    2627.0193    42.159267    42.159267     84.48732 
   52600    1358.1657   -23380.343   -24784.621    2071.0834    2474.5409    2208.4127    1530.2966    42.159267    42.159267    84.506211 
   52700    1345.3168   -23372.878   -24763.871    2442.4471    2608.0688    2538.8488    2180.4238    42.159267    42.159267    84.525824 
   52800    1354.8581   -23365.392    -24766.25    2679.1703    2863.4056    3138.4701    2035.6353    42.159267    42.159267    84.546059 
   52900    1357.5873   -23357.919   -24761.599    2258.9112    2290.6426    2186.2159    2299.8752    42.159267    42.159267    84.566974 
   53000    1354.1869   -23350.434   -24750.599    2621.3697    4119.8118    1515.3374    2228.9601    42.159267    42.159267    84.588661 
   53100    1361.9327   -23342.939   -24751.112    2446.9317    2417.4598     2475.991    2447.3442    42.159267    42.159267    84.611181 
   53200    1378.6992   -23335.442   -24760.951    1993.8129    2164.4595    1952.1384    1864.8409    42.159267    42.159267    84.634587 
   53300    1375.3551   -23327.899    -24749.95    2089.9314     2384.365    2508.5822    1376.8469    42.159267    42.159267    84.658746 
   53400    1371.4601   -23320.421   -24738.445    2555.1254    2229.3825    3406.4788    2029.5149    42.159267    42.159267     84.68353 
   53500    1375.6924   -23312.851    -24735.25    2396.0645    2466.9256    3041.3246    1679.9432    42.159267    42.159267    84.708842 
   53600    1370.1521   -23305.294   -24721.965    2587.7672    4012.5252    2478.6274    1272.1489    42.159267    42.159267     84.73446 
   53700    1381.7094    -23297.74   -24726.361     2289.174    2540.8866    2201.7092    2124.9263    42.159267    42.159267    84.760247 
   53800    1390.2851   -23290.185   -24727.673    2421.1209    2684.5268    2603.5119     1975.324    42.159267    42.159267    84.786485 
   53900    1395.6631   -23282.615   -24725.663    2053.8628    3735.0712    1636.0871    790.43001    42.159267    42.159267    84.813238 
   54000     1385.793   -23275.064   -24707.907    2450.6331    2508.2393    2748.9003    2094.7597    42.159267    42.159267     84.84024 
   54100    1392.8707   -23267.471   -24707.632    2237.5101    2994.2572    2122.0552    1596.2178    42.159267    42.159267    84.867615 
   54200    1406.8302   -23259.886   -24714.481    2156.8213    2258.2509    1577.8205    2634.3924    42.159267    42.159267    84.895261 
   54300     1415.064    -23252.31   -24715.419    2076.1523    3114.9422    1446.9033    1666.6114    42.159267    42.159267    84.923599 
   54400    1401.4386   -23244.702   -24693.722    2523.9681    3441.3151    2246.3257    1884.2637    42.159267    42.159267    84.952217 
   54500    1409.2575   -23237.137   -24694.242    2234.4026     1739.823    2523.8873    2439.4976    42.159267    42.159267    84.981016 
   54600    1402.0935   -23229.561   -24679.258    2502.8465    3643.6204    1955.9136    1909.0056    42.159267    42.159267    85.010318 
   54700    1413.6635   -23221.937   -24683.597    2465.8941    3355.7142    1843.6725    2198.2956    42.159267    42.159267    85.039831 
[...]
  136300    1268.4597   -23525.407   -24836.933    58.721847   -176.50132    680.61497    -327.9481    42.159267    42.159267    84.458644 
  136400    1272.4172   -23525.375   -24840.993    31.949944     580.0384   -93.853403   -390.33517    42.159267    42.159267    84.457709 
  136500    1280.4493   -23525.339   -24849.262   -119.55309   -155.87479   -52.759276   -150.02519    42.159267    42.159267    84.456306 
  136600    1274.3921   -23525.303   -24842.963   -12.793236   -212.82266    361.01479   -186.57184    42.159267    42.159267    84.454847 
  136700     1270.416   -23525.265   -24838.814    80.408113    254.83085    103.43356   -117.04008    42.159267    42.159267    84.453121 
  136800    1278.2331   -23525.243   -24846.874    -8.673128   -182.35101    596.20163   -439.87001    42.159267    42.159267    84.451045 
  136900    1264.7663   -23525.231   -24832.939      72.6811    440.01444    410.15604   -632.12719    42.159267    42.159267    84.448594 
  137000    1277.5595   -23525.217   -24846.152    122.33212    1411.4783   -712.87419    -331.6078    42.159267    42.159267    84.445646 
  137100    1270.3187   -23525.202   -24838.651    195.33982   -187.49413    992.06284   -218.54927    42.159267    42.159267    84.442526 
  137200    1273.6018   -23525.162   -24842.005    120.34192    256.70802    16.730115    87.587636    42.159267    42.159267    84.439548 
  137300    1273.5186   -23525.111   -24841.868     142.4263    823.66626    114.61406   -511.00143    42.159267    42.159267    84.436708 
  137400    1273.9279   -23525.077   -24842.257    183.75628    835.22638   -590.70006    306.74252    42.159267    42.159267    84.433665 
  137500    1274.6197   -23525.067   -24842.962   -26.580993    252.38993   -277.43693   -54.695982    42.159267    42.159267    84.430682 
  137600    1278.9526   -23525.082   -24847.457   -84.218201    398.69796   -748.42927    97.076708    42.159267    42.159267    84.427624 
  137700    1273.9997    -23525.11   -24842.364    169.17068     915.4724   -537.97639    130.01605    42.159267    42.159267    84.424705 
  137800    1272.8894   -23525.149   -24841.256    248.73199    645.03692   -91.476324    192.63537    42.159267    42.159267    84.422028 
  137900    1269.7255   -23525.168   -24838.003    269.10403     719.5426     -47.8983     135.6678    42.159267    42.159267    84.419683 
  138000     1273.385   -23525.162   -24841.781    475.42092    1523.8933   -244.46061    146.83007    42.159267    42.159267    84.417476 
  138100    1269.5238   -23525.143    -24837.77    463.22621    859.76023   -157.80734    687.72575    42.159267    42.159267    84.415542 
  138200    1267.5114   -23525.097   -24835.643    350.46158    699.09857   -625.24061    977.52678    42.159267    42.159267    84.414351 
  138300    1272.6251   -23525.026   -24840.859    197.95148    646.84444     -65.3788    12.388805    42.159267    42.159267    84.413804 
  138400    1277.4012   -23524.966   -24845.737     214.0497    1189.3887   -199.94418   -347.29546    42.159267    42.159267    84.413422 
  138500    1282.7688   -23524.894   -24851.216    85.029428   -535.29602    426.44022    363.94409    42.159267    42.159267    84.413137 
  138600    1279.6658   -23524.824   -24847.937    182.26495   -183.57079    601.05032    129.31531    42.159267    42.159267    84.413318 
  138700    1286.1238   -23524.805   -24854.595    11.719598    8.5572861    77.204404   -50.602896    42.159267    42.159267    84.413864 
  138800    1281.7736   -23524.788    -24850.08   -76.608952    847.76207   -972.85493     -104.734    42.159267    42.159267    84.414556 
  138900    1271.9773   -23524.791   -24839.954    289.27236     1215.305   -501.65186    154.16394    42.159267    42.159267    84.415294 
  139000    1275.8167   -23524.789   -24843.922    204.13592    103.86307   -742.87062    1251.4153    42.159267    42.159267    84.416261 
  139100    1278.9508    -23524.79   -24847.164    21.343332    625.00308    240.53084   -801.50392    42.159267    42.159267    84.417998 
  139200    1266.3829   -23524.764   -24834.143    361.99398    399.79064     888.0354   -201.84411    42.159267    42.159267    84.419602 
  139300    1265.5779   -23524.691   -24833.238    490.15248    658.42028    884.28567   -72.248509    42.159267    42.159267    84.420993 
  139400    1269.1796   -23524.604   -24836.874    319.93098   -58.553749   -16.960086    1035.3068    42.159267    42.159267    84.422353 
  139500    1279.7634   -23524.512   -24847.726   -154.93532   -45.311039   -670.56004    251.06512    42.159267    42.159267    84.424265 
  139600    1279.3797   -23524.451   -24847.268    167.09004    284.45758    946.80506   -729.99253    42.159267    42.159267    84.426237 
  139700    1278.8635   -23524.432   -24846.716    35.086472    494.28959    446.54944   -835.57961    42.159267    42.159267    84.427761 
  139800    1268.7963   -23524.443   -24836.318    242.19991     91.75298    137.89748    496.94928    42.159267    42.159267    84.428908 
  139900    1272.1834   -23524.442   -24839.819    275.54687    852.98724   -149.80361    123.45699    42.159267    42.159267    84.430171 
  140000    1287.9257   -23524.432   -24856.085    7.2725566      375.372   -507.81102    154.25669    42.159267    42.159267     84.43152 
  140100    1267.0671   -23524.414   -24834.501    463.40852    1148.2711    299.43829   -57.483855    42.159267    42.159267    84.432887 
  140200    1285.9331   -23524.416   -24854.009   -213.51434    405.56487    -1123.379    77.271146    42.159267    42.159267    84.434142 
  140300    1266.1959    -23524.42   -24833.606    390.87574    614.35081    109.22585    449.05056    42.159267    42.159267    84.435677 
  140400     1267.127   -23524.384   -24834.532    244.24519   -597.11681    363.64501    966.20738    42.159267    42.159267    84.437648 
  140500     1279.227   -23524.325   -24846.985   -51.678374    254.00258   -102.63329   -306.40441    42.159267    42.159267    84.440146 
  140600    1266.6582   -23524.277   -24833.941    200.54007    1025.4655    46.975919   -470.82126    42.159267    42.159267    84.442622 
  140700    1278.1413   -23524.222   -24845.758   -198.51832    -131.1415   -543.65035    79.236891    42.159267    42.159267    84.444606 
  140800    1278.7144   -23524.238   -24846.367   -139.34858   -649.23673    771.62708   -540.43609    42.159267    42.159267    84.446357 
  140900    1276.0205   -23524.314   -24843.658    45.830442    493.66779    55.152733    -411.3292    42.159267    42.159267    84.447697 
  141000    1290.4403   -23524.433   -24858.686   -337.76186    111.66665  -0.42241642   -1124.5298    42.159267    42.159267    84.448519 
  141100    1271.0285   -23524.578    -24838.76    196.38878    729.50571   -207.11994    66.780574    42.159267    42.159267    84.448807 
  141200    1274.4436   -23524.695   -24842.409    265.47929    735.42228   -98.059024    159.07461    42.159267    42.159267    84.449197 
  141300    1264.8501   -23524.772   -24832.567    373.42295      659.841   -423.96249    884.39034    42.159267    42.159267     84.44974 
  141400    1271.9345   -23524.795   -24839.914    -13.79415   -3.3548031    -102.2179    64.190256    42.159267    42.159267    84.450645 
  141500    1278.8159   -23524.838   -24847.072   -216.19398    28.182155   -642.91703   -33.847074    42.159267    42.159267    84.451567 
  141600    1263.9075   -23524.913   -24831.733    457.28337     1397.408    334.90909     -360.467    42.159267    42.159267    84.452452 
  141700    1268.0734   -23524.935   -24836.062   -53.933663    415.89022   -74.656429   -503.03478    42.159267    42.159267    84.452874 
  141800    1274.9703   -23524.925   -24843.183   -126.73151   -104.88245    -199.2014   -76.110691    42.159267    42.159267    84.452798 
  141900    1275.0343   -23524.872   -24843.196   -15.431729    67.434876      90.5331   -204.26316    42.159267    42.159267     84.45269 
  142000     1283.211   -23524.807   -24851.586   -370.02394    219.66525   -1135.9819   -193.75517    42.159267    42.159267    84.452491 
  142100    1279.6819   -23524.789   -24847.918   -258.47184    502.05991   -471.16544   -806.30998    42.159267    42.159267    84.452164 
  142200    1268.8172   -23524.753   -24836.649    225.09443     343.2063    290.68622    41.390781    42.159267    42.159267    84.451453 
  142300       1280.3    -23524.71   -24848.478   -124.95705   -449.43436   -414.82301    489.38621    42.159267    42.159267    84.450668 
  142400    1283.6527   -23524.664   -24851.899   -76.701554   -430.02058   -85.237464    285.15339    42.159267    42.159267    84.450303 
  142500    1276.0366   -23524.685   -24844.046   -117.25955   -587.51819   -507.57357     743.3131    42.159267    42.159267    84.450115 
  142600     1283.582   -23524.768    -24851.93    -140.4149   -272.71111   -416.67959    268.14601    42.159267    42.159267    84.450192 
  142700    1280.5117   -23524.873    -24848.86   -264.20157   -474.29096   -5.9171062   -312.39664    42.159267    42.159267    84.450702 
  142800    1270.9276   -23524.971   -24839.049    366.07966    337.60976    147.00741    613.62181    42.159267    42.159267    84.451394 
  142900     1270.083   -23525.029   -24838.234    10.708313    358.32847    119.28729   -445.49082    42.159267    42.159267    84.452344 
  143000     1276.162   -23525.089   -24844.579   -143.35297   -114.27557    547.49621   -863.27954    42.159267    42.159267    84.452923 
  143100    1268.2865   -23525.171   -24836.519      57.4926    373.92937   -87.768884   -113.68269    42.159267    42.159267    84.452747 
  143200    1274.0107   -23525.266   -24842.532    117.29284    147.53566    447.61311   -243.27026    42.159267    42.159267    84.452135 
  143300    1276.8674   -23525.354   -24845.573    162.07225    348.41273    306.65701   -168.85299    42.159267    42.159267    84.451258 
  143400    1278.6132   -23525.501   -24847.526     56.96732    128.60436   -271.32722    313.62482    42.159267    42.159267    84.450255 
  143500    1282.7571   -23525.681    -24851.99   -157.63139    712.62042   -675.53464   -509.97995    42.159267    42.159267     84.44939 
  143600    1282.5795    -23525.87   -24851.996   -189.07277   -286.45663   -620.34535    339.58367    42.159267    42.159267    84.448391 
  143700    1273.6128    -23526.12   -24842.974   -94.979534    470.77542   -52.915165   -702.79886    42.159267    42.159267    84.447277 
  143800    1268.7061   -23526.362   -24838.143   -105.99142    247.19758   -329.57701   -235.59482    42.159267    42.159267    84.445719 
  143900    1270.7912   -23526.572   -24840.509    17.601331    165.18821   -18.168215   -94.215998    42.159267    42.159267    84.443894 
  144000    1275.6749   -23526.754    -24845.74    15.763636    501.61235     45.14013   -499.46157    42.159267    42.159267     84.44201 
  144100    1279.2396   -23526.912   -24849.584    -220.4432    607.98337   -470.50058    -798.8124    42.159267    42.159267    84.440174 
  144200    1280.7881   -23527.086   -24851.359   -162.95057    218.87641   -132.50473   -575.22338    42.159267    42.159267    84.438101 
  144300    1274.6301   -23527.265   -24845.171   -64.093993   -483.63887    19.763963    271.59293    42.159267    42.159267     84.43546 
  144400     1276.445   -23527.444   -24847.227     133.9484   -317.48289    147.14026    572.18784    42.159267    42.159267    84.432812 
  144500    1285.5913   -23527.633   -24856.873   -296.73085   -203.45887   -340.15428   -346.57941    42.159267    42.159267    84.430615 
  144600    1266.1581   -23527.816   -24836.963    438.58463    911.17142   -169.11566    573.69815    42.159267    42.159267    84.428436 
  144700    1272.9526   -23527.989   -24844.161     41.23164    54.234136   -663.51604    732.97682    42.159267    42.159267    84.426519 
  144800    1269.3853   -23528.128   -24840.612    139.62576    697.00619   -406.30645    128.17753    42.159267    42.159267    84.425158 
  144900    1277.0712    -23528.25    -24848.68    31.360622    801.35139   -335.08188   -372.18765    42.159267    42.159267    84.423967 
  145000    1269.6843    -23528.39   -24841.183    258.72776    762.69174   -92.961707    106.45324    42.159267    42.159267    84.422795 
  145100     1271.853   -23528.494   -24843.529    269.79617    618.18453   -282.09908    473.30307    42.159267    42.159267     84.42189 
  145200    1277.6019   -23528.562   -24849.541   -31.993368    832.64796   -822.05744   -106.57062    42.159267    42.159267    84.421114 
  145300    1282.7806   -23528.625   -24854.959    -350.4098   -859.39876   -412.76236    220.93171    42.159267    42.159267    84.420478 
  145400    1281.4145    -23528.65   -24853.571   -204.02771   -447.66949    240.81475    -405.2284    42.159267    42.159267    84.420057 
  145500    1281.0387   -23528.696   -24853.228     16.69983    263.68021    339.53723   -553.11795    42.159267    42.159267    84.419379 
  145600    1280.8346    -23528.74   -24853.061   -112.75779    540.86458   -549.48779   -329.65017    42.159267    42.159267    84.418607 
  145700    1277.5998   -23528.826   -24849.803     226.5213    460.11753    488.11729   -268.67092    42.159267    42.159267    84.417855 
  145800    1277.4239   -23528.917   -24849.712   -7.5608602    572.22478   -508.33701    -86.57035    42.159267    42.159267    84.417051 
  145900    1283.4419   -23528.987   -24856.004   -182.39461   -304.76917   -812.43731    570.02266    42.159267    42.159267    84.416206 
  146000    1266.9834   -23529.042   -24839.042    424.64904    754.79656    66.492197    452.65837    42.159267    42.159267    84.415695 
  146100    1266.4579    -23529.06   -24838.517    351.34478    313.18306    453.45373    287.39754    42.159267    42.159267    84.415536 
  146200    1266.4356   -23529.036    -24838.47    498.66993    529.78108    67.781704    898.44701    42.159267    42.159267    84.415716 
  146300    1262.7578   -23528.964   -24834.595    400.25636    675.31792    50.874864    474.57629    42.159267    42.159267    84.416486 
  146400    1278.5858   -23528.925   -24850.921   -53.544235    670.85486   -578.65275   -252.83482    42.159267    42.159267     84.41766 
  146500     1273.389   -23528.888   -24845.511    227.41882    510.58739   -55.956993    227.62607    42.159267    42.159267    84.418818 
  146600    1272.5549   -23528.844   -24844.605    135.91968    441.66735   -350.25659    316.34827    42.159267    42.159267    84.420142 
  146700     1279.971   -23528.799   -24852.228    51.539163     642.1191   -636.42539    148.92378    42.159267    42.159267      84.4217 
  146800    1266.8156   -23528.749   -24838.575    294.98117    1112.4004    479.94546   -707.40233    42.159267    42.159267    84.423491 
  146900    1265.2706   -23528.711    -24836.94    86.673565   -281.93202    949.10874   -407.15602    42.159267    42.159267    84.424988 
  147000    1277.8579   -23528.646    -24849.89    40.425182    107.10186    730.44334   -716.26965    42.159267    42.159267    84.426213 
  147100    1278.4141   -23528.586   -24850.404   -120.47518    280.24274   -483.89146   -157.77683    42.159267    42.159267    84.427025 
  147200    1275.6756   -23528.553   -24847.541   -173.19188    22.460873   -313.27548   -228.76103    42.159267    42.159267    84.427555 
  147300    1283.7435   -23528.546   -24855.875   -312.43384    140.92834   -514.82399   -563.40585    42.159267    42.159267    84.427708 
  147400    1277.5573   -23528.585   -24849.518   -165.23768    355.77111   -398.06495   -453.41921    42.159267    42.159267    84.427374 
  147500    1276.2921   -23528.632   -24848.257    127.00474   -14.706411    413.90039   -18.179764    42.159267    42.159267     84.42648 
  147600    1272.9549   -23528.673   -24844.848    70.469521    30.049743    67.789349    113.56947    42.159267    42.159267    84.425286 
  147700    1279.7538   -23528.737   -24851.941    23.563566    124.76293    463.48934   -517.56157    42.159267    42.159267    84.424259 
  147800    1273.9882   -23528.823   -24846.066     160.3482    402.23834    36.536386    42.269856    42.159267    42.159267    84.423268 
  147900    1279.3566   -23528.861   -24851.654   0.36449845    306.72755   -326.44589    20.811836    42.159267    42.159267    84.422292 
  148000    1274.1404   -23528.922   -24846.322    159.01157    184.77705   -429.79212    722.04979    42.159267    42.159267    84.421356 
  148100     1273.042   -23528.991   -24845.256    185.56449    811.30692    130.56299   -385.17645    42.159267    42.159267    84.420698 
  148200    1281.5316   -23529.027   -24854.069   -1.8358989    489.95456   -442.49053   -52.971724    42.159267    42.159267    84.419903 
  148300    1270.9126   -23529.047   -24843.109    208.28799    117.11147   -169.09473    676.84725    42.159267    42.159267    84.419358 
  148400      1265.67   -23529.057   -24837.699    484.09422   -148.39279    831.66856    769.00688    42.159267    42.159267    84.419293 
  148500    1279.6112   -23529.094    -24852.15    123.25565   -458.10747    12.064844    815.80959    42.159267    42.159267    84.419625 
  148600    1266.5433   -23529.119   -24838.663    335.37906    883.22673   -255.49151    378.40194    42.159267    42.159267    84.420859 
  148700    1272.9987   -23529.119   -24845.339    153.30685     233.5114   -699.32115    925.73031    42.159267    42.159267    84.422521 
  148800    1279.3753   -23529.152   -24851.964   -12.160583    280.84269    164.14128   -481.46571    42.159267    42.159267    84.424444 
  148900    1278.5553   -23529.212   -24851.177   -60.454364   -323.13055    322.29206   -180.52461    42.159267    42.159267    84.426225 
  149000    1276.3514   -23529.289   -24848.975   -41.621107    561.54139    6.6634373   -693.06815    42.159267    42.159267     84.42784 
  149100    1270.2936   -23529.381   -24842.804    1.4368387    283.67285   -463.60666    184.24433    42.159267    42.159267    84.428949 
  149200    1266.2853   -23529.449   -24838.727    79.461735     397.0237    265.74783   -424.38632    42.159267    42.159267     84.43018 
  149300    1274.2275   -23529.476   -24846.966    27.249203   -762.40719    223.74568    620.40912    42.159267    42.159267    84.431289 
  149400    1268.4033   -23529.479   -24840.947    97.053959    327.68548   -180.19544    143.67184    42.159267    42.159267    84.432448 
  149500      1262.56   -23529.475   -24834.901    185.85477   -233.11064    698.46123    92.213708    42.159267    42.159267    84.433579 
  149600    1270.5065   -23529.423   -24843.065    64.199316    23.843209    445.80322   -277.04848    42.159267    42.159267     84.43456 
  149700    1272.8761   -23529.344   -24845.436    4.0009343    48.611574   -185.96035    149.35158    42.159267    42.159267    84.435546 
  149800    1270.5218   -23529.262    -24842.92    37.281161   -172.23909   -634.89762    918.98019    42.159267    42.159267    84.436817 
  149900    1277.8842   -23529.146   -24850.417    2.4934905    570.99795    -466.7457    -96.77178    42.159267    42.159267    84.438666 
  150000    1271.9008   -23529.012   -24844.096    214.30108    1222.6798   -65.008458   -514.76805    42.159267    42.159267    84.440454 
Loop time of 1360.21 on 1 procs for 50000 steps with 8000 atoms

Pair  time (%) = 1230.14 (90.4377)
Neigh time (%) = 97.2671 (7.15092)
Comm  time (%) = 7.93384 (0.583282)
Outpt time (%) = 0.619157 (0.0455194)
Other time (%) = 24.2465 (1.78256)

Nlocal:    8000 ave 8000 max 8000 min
Histogram: 1 0 0 0 0 0 0 0 0 0
Nghost:    8259 ave 8259 max 8259 min
Histogram: 1 0 0 0 0 0 0 0 0 0
Neighs:    272036 ave 272036 max 272036 min
Histogram: 1 0 0 0 0 0 0 0 0 0

Total # of neighbors = 272036
Ave neighs/atom = 34.0045
Neighbor list builds = 5000
Dangerous builds = 0
