LAMMPS (13 Jan 2014)
dimension       3
boundary        p p p
units           metal

atom_style	atomic
neighbor	0.3 bin
neigh_modify	every 10 delay 0 check no

# Number of steps for the equilibration steps
variable        eqsteps equal 50000

# Number of steps to run our NPH simulation
variable        simsteps equal 200000

# Our trial melting temperature
variable	T equal 875.0
variable	T2 equal 2*${T}
variable	T2 equal 2*875

# Some high temperature to melt the crystal
variable	Tmelt equal 2000.0

#System size
variable	nx equal 10
variable	ny equal 10
variable	nz equal 20
variable	nzhalf equal ${nz}*0.5
variable	nzhalf equal 20*0.5
variable	a equal 4.050
variable	length equal ${nz}*${a}
variable	length equal 20*${a}
variable	length equal 20*4.05

lattice		fcc ${a}
lattice		fcc 4.05
Lattice spacing in x,y,z = 4.05 4.05 4.05

region         box block 0 ${nx} 0 ${ny} 0 ${nz}
region         box block 0 10 0 ${ny} 0 ${nz}
region         box block 0 10 0 10 0 ${nz}
region         box block 0 10 0 10 0 20
create_box     1 box
Created orthogonal box = (0 0 0) to (40.5 40.5 81)
  1 by 1 by 1 MPI processor grid
create_atoms   1 box
Created 8000 atoms

mass		1 26.9815

pair_style	eam/alloy
pair_coeff	* * Al_potential.alloy Al

velocity	all create ${T2} 1337
velocity	all create 1750 1337

# Create a dump file. This can be visualized with
# e.g. OVITO (http://www.ovito.org/)
dump		id all atom 1000 atomsdump

# 1 fs timestep
timestep	0.001
thermo_style	custom step temp etotal pe press pxx pyy pzz lx ly lz

# output every 100th timestep
thermo		100

# Equilibration the whole system to the trial melting temperature
fix		1 all npt temp ${T} ${T} 1 iso 0 0 3 drag 1.0
fix		1 all npt temp 875 ${T} 1 iso 0 0 3 drag 1.0
fix		1 all npt temp 875 875 1 iso 0 0 3 drag 1.0
run		${eqsteps}
run		50000
Memory usage per processor = 5.95314 Mbytes
Step Temp TotEng PotEng Press Pxx Pyy Pzz Lx Ly Lz 
       0         1750   -25367.836   -27177.252    10482.893    10350.698    10337.024    10760.956         40.5         40.5           81 
     100    844.63111   -25385.743   -26259.051    27144.264    27429.197    27157.162    26846.432    40.588518    40.588518    81.177035 
     200    821.73602   -25411.772   -26261.407    15930.785    16501.805    15879.775    15410.775    40.796962    40.796962    81.593925 
     300     824.7307   -25422.536   -26275.268    6813.0367    6768.5298    6651.2006    7019.3799    40.965951    40.965951    81.931902 
     400    814.61935   -25423.511   -26265.788     1504.253    1171.4305    1998.3572    1342.9711    41.077125    41.077125    82.154249 
     500    800.37151   -25420.776   -26248.321   -1723.4535     -1638.37   -1505.7425    -2026.248     41.15124     41.15124     82.30248 
     600    801.69509   -25416.818   -26245.732   -3596.5683   -3359.0559   -3750.8331   -3679.8159    41.192134    41.192134    82.384268 
     700    794.30036   -25413.044   -26234.313   -3831.3937   -3750.6252   -3905.0228   -3838.5332    41.202122    41.202122    82.404245 
     800    809.51411   -25409.797   -26246.796    -3326.868   -3133.1473   -3721.9198   -3125.5369    41.187778    41.187778    82.375557 
     900    805.80347   -25406.945   -26240.107   -1674.5913   -1559.6599   -1783.9064   -1680.2078    41.157942    41.157942    82.315883 
    1000    818.86425   -25404.039   -26250.705   -317.70719   -206.72571   -241.21873   -505.17713    41.124521    41.124521    82.249043 
    1100    826.67757   -25400.989   -26255.734    914.35882    1054.7484    899.09953    789.22849    41.097453    41.097453    82.194906 
    1200     823.4854   -25398.008   -26249.452    1809.0696    2296.5421    1744.7339    1385.9329    41.082856    41.082856    82.165713 
    1300    817.47599   -25395.271   -26240.501    2103.5114    2108.6801    2026.0537    2175.8004    41.081867    41.081867    82.163733 
    1400    823.68304   -25392.702   -26244.351    1483.9479    1489.1223     1571.547    1391.1746    41.092799    41.092799    82.185599 
    1500    812.45072   -25390.123   -26230.158    959.10761    875.99046    1083.4405     917.8919     41.11089     41.11089    82.221781 
    1600    824.06186   -25387.361   -26239.401   -256.84471   -345.88076   -440.45011    15.796756    41.130559    41.130559    82.261118 
    1700    815.49455   -25384.488    -26227.67   -606.37264   -528.49846    -468.5769   -822.04255    41.146146    41.146146    82.292292 
    1800    818.69286   -25381.615   -26228.104   -1153.9774   -1153.3355   -969.80266   -1338.7939    41.154465    41.154465     82.30893 
    1900    826.11661   -25378.746   -26232.911   -1215.6864   -1366.2567   -864.26003   -1416.5423     41.15505     41.15505    82.310101 
    2000    815.43154    -25375.95   -26219.067   -606.88531   -1223.9679   -235.21273   -361.47533    41.148928    41.148928    82.297856 
    2100    820.47949   -25373.185   -26221.521   -80.595467   -250.07374    170.06194    -161.7746    41.139258    41.139258    82.278516 
    2200    822.11112   -25370.453   -26220.476    450.78527    670.90347    200.90669    480.54564    41.129453    41.129453    82.258906 
    2300    830.84716   -25367.756   -26226.812    736.66895    663.59792    1049.6077    496.80124    41.122826    41.122826    82.245652 
    2400    825.10197   -25365.176   -26218.292    895.61576    704.88486    978.80983    1003.1526    41.120984    41.120984    82.241968 
    2500    839.88979    -25362.69   -26231.096    528.73072    376.29075    619.56257    590.33884    41.124079    41.124079    82.248159 
    2600    833.19289   -25360.279   -26221.761     397.9819    15.108347    872.86751    305.96983    41.130855    41.130855    82.261709 
    2700    832.32243   -25357.876   -26218.458    46.093204   -107.29273     283.4496   -37.877259     41.13948     41.13948     82.27896 
    2800     838.5457   -25355.472   -26222.488   -345.86975   -453.23476   -557.54577   -26.828727    41.147597    41.147597    82.295195 
    2900     837.0835   -25353.062   -26218.566   -558.36072   -496.46024   -785.01133   -393.61058     41.15355     41.15355      82.3071 
    3000    829.29517   -25350.621   -26208.072   -349.24371   -536.74637    -428.0179   -82.966865    41.156163    41.156163    82.312325 
    3100    846.53457   -25348.168   -26223.444    -723.2441   -540.90327   -1235.7972   -393.03182    41.155791    41.155791    82.311582 
    3200    837.86875   -25345.766   -26212.082   -206.45977   -251.02143   -342.14773   -26.210153    41.152522    41.152522    82.305043 
    3300    839.79933     -25343.4   -26211.712   -74.589089    165.94789    133.61014   -523.32529     41.14808     41.14808    82.296161 
    3400    837.26165   -25341.101    -26206.79     284.5062    492.33373    129.36683    231.81805     41.14348     41.14348     82.28696 
    3500    845.39829   -25338.882   -26212.983    284.56219    401.26578   -140.51717    592.93795    41.140297    41.140297    82.280594 
    3600    834.76299   -25336.694   -26199.799    675.96633    793.53743    961.28923    273.07235    41.140136    41.140136    82.280273 
    3700    849.00165   -25334.559   -26212.386    224.17048   -164.61058    342.77492    494.34709    41.143163    41.143163    82.286326 
    3800    851.66646    -25332.51   -26213.092   -41.165468    526.78728   -543.21706   -107.06662    41.148235    41.148235    82.296469 
    3900     841.3689   -25330.538   -26200.473   -8.3638975    76.376888   -272.56987    171.10129    41.153516    41.153516    82.307031 
    4000    844.39641   -25328.531   -26201.596   -190.54078   -309.72179   -377.93669    116.03613    41.158462    41.158462    82.316925 
    4100     838.5277   -25326.541   -26193.538   -104.95156   -10.437611    164.44867   -468.86573    41.161782    41.161782    82.323565 
    4200    854.24849   -25324.551   -26207.803   -540.39616   -1.7852615   -450.08702   -1169.3162     41.16324     41.16324     82.32648 
    4300    842.52958   -25322.603   -26193.738   -130.57734      310.926   -269.21293    -433.4451    41.162121    41.162121    82.324241 
    4400    852.16904   -25320.665   -26201.767     -83.2902   -130.21115   -3.8603792   -115.79907    41.159702    41.159702    82.319404 
    4500     837.5124   -25318.826   -26184.774    435.87497    491.93584    463.32714    352.36192    41.156589    41.156589    82.313177 
    4600    854.47359   -25316.963   -26200.447    225.69619    396.25915    163.10909    117.72032    41.154922    41.154922    82.309844 
    4700     848.2732   -25315.149   -26192.223    256.02041    221.04836    743.97285   -196.95997    41.155044    41.155044    82.310087 
    4800    856.50717   -25313.382   -26198.969    21.073096    120.34233    181.20678   -238.32982     41.15665     41.15665    82.313301 
    4900    853.98116   -25311.684   -26194.659    140.17975    400.95509    181.53723   -161.95308    41.159047    41.159047    82.318093 
    5000    854.57222   -25309.996   -26193.583   -46.681257   -275.71859    50.107475    85.567347     41.16202     41.16202    82.324041 
    5100    852.60639   -25308.312   -26189.866   -88.312933    90.306408   -206.39382   -148.85138    41.164709    41.164709    82.329419 
    5200    860.19946    -25306.68   -26196.084   -329.19702   -445.43544   -140.14014   -402.01549    41.166363    41.166363    82.332727 
    5300    859.01759   -25305.078   -26193.261    -287.6576   -330.88957    -408.6248   -123.45844    41.166682    41.166682    82.333363 
    5400    852.96652   -25303.505   -26185.432     5.952002   -126.94237   -3.9082056    148.70658    41.165863    41.165863    82.331726 
    5500    861.28305   -25301.957   -26192.483   -190.57321    190.76166   -820.26757     57.78629    41.164769    41.164769    82.329538 
    5600      855.396   -25300.403   -26184.841    188.90973    258.84467   -62.046385    369.93091    41.163851    41.163851    82.327702 
    5700    849.28682   -25298.895   -26177.017    369.28133    193.20672    762.01006    152.62721    41.163875    41.163875    82.327751 
    5800    869.72626   -25297.398   -26196.653   -196.60775    42.619695   -612.76419   -19.678765    41.165069    41.165069    82.330137 
    5900    863.87797   -25295.949   -26189.157   -55.579887   -25.228824    -111.3282   -30.182632    41.166663    41.166663    82.333326 
    6000    858.75938    -25294.51   -26182.426     33.73748    211.36664   -42.326495   -67.827708    41.168631    41.168631    82.337262 
    6100    852.53191   -25293.129   -26174.606    147.38197   -24.458739     251.2729    215.33173    41.170288    41.170288    82.340575 
    6200    856.49665   -25291.752   -26177.328    -31.87847    69.289768   -386.12975    221.20457    41.171848    41.171848    82.343696 
    6300    862.52705   -25290.382   -26182.193   -189.36258   -150.67492   -299.23336   -118.17947    41.172836    41.172836    82.345671 
    6400    857.79027   -25289.081   -26175.994   -41.320234    375.78051    1.1147487   -500.85596    41.172612    41.172612    82.345223 
    6500    861.08938   -25287.802   -26178.127   -35.757386   -309.63958   -283.65106    486.01848    41.171737    41.171737    82.343475 
    6600    861.61859   -25286.498    -26177.37     34.59843   -521.57858    338.49578    286.87809    41.171057    41.171057    82.342113 
    6700    867.89355   -25285.198   -26182.558    -15.29327   -370.17419   -232.70336    556.99774     41.17084     41.17084     82.34168 
    6800    868.40637   -25283.973   -26181.864   -13.234424    161.71326   -260.42934    59.012801    41.170923    41.170923    82.341845 
    6900    861.16421    -25282.86   -26173.262    165.28176    729.69142    14.649391   -248.49553    41.171091    41.171091    82.342182 
    7000    867.21435   -25281.786   -26178.444    20.169311     71.61869   -19.187403    8.0766453    41.171916    41.171916    82.343831 
    7100    865.46969   -25280.762   -26175.616    2.7557619   -26.339917    21.610747    12.996456    41.172943    41.172943    82.345887 
    7200    870.22618   -25279.755   -26179.527   -58.058082   -124.36726    190.44936   -240.25634     41.17414     41.17414    82.348281 
    7300    863.26101   -25278.773   -26171.343    94.315699    142.09244    180.50945   -39.654786    41.175283    41.175283    82.350565 
    7400      864.756   -25277.777   -26171.893   -6.5413423   -688.22388    675.65591   -7.0560524    41.176672    41.176672    82.353344 
    7500    863.27435   -25276.773   -26169.357   -21.316371   -372.78155   -196.02945    504.86189    41.177758    41.177758    82.355517 
    7600    856.07684   -25275.819   -26160.961    168.39993   -102.33277    -143.7845    751.31707    41.178113    41.178113    82.356225 
    7700    864.02364   -25274.878   -26168.237    96.288019     123.9206   -77.676293    242.61975    41.178139    41.178139    82.356278 
    7800    874.40976   -25273.945   -26178.043   -227.35229   -49.155822   -430.06421   -202.83682    41.177934    41.177934    82.355867 
    7900    866.55406    -25273.09   -26169.065    19.595424    276.73234   -292.79972    74.853657    41.176963    41.176963    82.353927 
    8000     869.0732   -25272.266   -26170.846    97.064136    225.75352   -253.54548    318.98436    41.176001    41.176001    82.352001 
    8100    874.23864   -25271.484   -26175.405    30.211403    415.07639   -134.47461   -189.96758    41.175641    41.175641    82.351281 
    8200    876.74918   -25270.756   -26177.273   -37.135637   -244.46298   -147.10678    280.16285    41.176098    41.176098    82.352196 
    8300    860.69431    -25270.03   -26159.947    161.85174    593.74843    15.682896   -123.87611    41.177569    41.177569    82.355139 
    8400    866.18997   -25269.335   -26164.933    111.53399     446.6599   -98.919735   -13.138197    41.179081    41.179081    82.358163 
    8500    874.49053    -25268.66   -26172.841   -155.67787   -300.95433   -203.26776    37.188477    41.180301    41.180301    82.360602 
    8600    872.10434   -25268.024   -26169.738   -147.02389   -272.47646    -171.4421    2.8468823    41.181031    41.181031    82.362061 
    8700    879.83501   -25267.384   -26177.091   -255.23341   -540.11388   -119.67751   -105.90884    41.181537    41.181537    82.363074 
    8800     867.6876   -25266.752   -26163.899    71.222207    200.55154     177.6671   -164.55202    41.181743    41.181743    82.363485 
    8900    878.82538   -25266.142   -26174.805   -262.10449    -700.6136   -422.12591    336.42604    41.181829    41.181829    82.363659 
    9000    875.91931   -25265.598   -26171.257   -109.73375   -163.60029   -228.54583    62.944857    41.181158    41.181158    82.362316 
    9100    870.78868   -25265.052   -26165.406    157.59441    43.071779    224.73683    204.97462    41.180581    41.180581    82.361161 
    9200    869.44482   -25264.504   -26163.468    76.671997    -197.5717     532.6006   -105.01291    41.180622    41.180622    82.361244 
    9300    877.95485   -25263.988   -26171.751   -140.27791    268.75766   -478.96687   -210.62452    41.180831    41.180831    82.361661 
    9400    864.38332   -25263.477   -26157.208     341.6707    291.38194    504.87168    228.75847    41.181219    41.181219    82.362437 
    9500    869.36211   -25263.011    -26161.89    151.53617    678.70779   -22.259313   -201.83997    41.182063    41.182063    82.364126 
    9600    874.69627   -25262.534   -26166.928   -128.95787    343.09418   -225.10644   -504.86134    41.183607    41.183607    82.367214 
    9700    876.11349     -25262.1    -26167.96   -185.97673    384.47384   -461.82991   -480.57414    41.184778    41.184778    82.369556 
    9800    871.91582   -25261.709   -26163.228   -75.912879     711.5262   -327.82777   -611.43706    41.185163    41.185163    82.370326 
    9900    863.78622   -25261.356   -26154.469    113.32999    385.99078     106.9726   -152.97341    41.184769    41.184769    82.369538 
   10000    870.70056   -25261.027    -26161.29    1.1690394    386.01273    -409.2344    26.728788     41.18379     41.18379     82.36758 
   10100    886.41935   -25260.739   -26177.254    -236.5939   -291.56627   -176.13104   -242.08437    41.182521    41.182521    82.365042 
   10200     877.3268    -25260.47   -26167.583   -8.3410688    528.63682   -373.85013    -179.8099    41.181568    41.181568    82.363136 
   10300    869.43344    -25260.24   -26159.192    279.95027    641.23318    293.65954   -95.041927    41.180889    41.180889    82.361778 
   10400    872.42787   -25260.058   -26162.107     67.24444    210.23001     270.7207   -279.21739    41.180569    41.180569    82.361138 
   10500    868.03132   -25259.847   -26157.349    306.72269    372.37854    163.02661    384.76291    41.180991    41.180991    82.361982 
   10600    879.32204   -25259.647   -26168.824    -72.07899    339.37815   -460.71214   -94.902987    41.182045    41.182045     82.36409 
   10700    883.34963   -25259.437   -26172.778   -271.25204   -501.25983   -11.036949   -301.45935    41.183473    41.183473    82.366947 
   10800    862.52173   -25259.274    -26151.08    268.55746    535.52385    191.74326    78.405282    41.184273    41.184273    82.368546 
   10900     873.3945   -25259.105   -26162.153   -43.474451   -328.75422   -353.48062    551.81148    41.184745    41.184745     82.36949 
   11000    870.25928   -25258.991   -26158.798    83.438375   -241.15868    241.36574    250.10806    41.184309    41.184309    82.368618 
   11100    877.64261   -25258.884   -26166.325   -55.794416   -331.36945    179.39981   -15.413607    41.183573    41.183573    82.367145 
   11200    870.48359   -25258.766   -26158.804    115.25514   -277.38459     124.6618    498.48822    41.183061    41.183061    82.366121 
   11300    876.30952   -25258.661   -26164.723   -50.355582   -325.66208    41.316398    133.27893    41.182707    41.182707    82.365415 
   11400    877.73507   -25258.552   -26166.088   -12.036527    52.482458   -87.894678  -0.69736087    41.182632    41.182632    82.365263 
   11500    876.53095   -25258.467   -26164.758   -21.627728   -512.70263   -6.8886845    454.70813    41.182823    41.182823    82.365645 
   11600    869.92942   -25258.445    -26157.91    159.54898     -359.902    357.40573    481.14319    41.182801    41.182801    82.365603 
   11700    874.56941   -25258.407    -26162.67    77.989828    249.27113   -76.516703    61.215056    41.183258    41.183258    82.366516 
   11800    871.55714   -25258.367   -26159.515    171.17508    147.50455    -199.5496     565.5703    41.184102    41.184102    82.368205 
   11900    867.28844   -25258.294   -26155.029    51.076743   -267.63734    429.32199   -8.4544166     41.18546     41.18546    82.370919 
   12000    872.17649   -25258.216   -26160.005   -9.7865967   -428.88056    209.39269    190.12808    41.186318    41.186318    82.372635 
   12100    876.70752   -25258.165   -26164.639   -141.65498   -453.30292   -271.02719    299.36518    41.186456    41.186456    82.372913 
   12200    878.98782   -25258.147   -26166.978   -190.51696   -361.86844   -742.38093    532.69848    41.185589    41.185589    82.371178 
   12300    873.42449   -25258.123   -26161.202    27.927554   -31.459417   -92.000536    207.24262    41.184286    41.184286    82.368572 
   12400    880.12663   -25258.131    -26168.14    -132.8588    67.482593   -373.44649   -92.612511    41.182771    41.182771    82.365543 
   12500    875.69078    -25258.14   -26163.562    128.74577    99.319263   -523.70108    810.61912    41.181545    41.181545     82.36309 
   12600     877.3202   -25258.124   -26165.231    76.109285     156.8063   -144.51165    216.03321      41.1814      41.1814      82.3628 
   12700    873.58955   -25258.131   -26161.381    73.121321    -302.1906    2.5878957    518.96667    41.181873    41.181873    82.363745 
   12800    880.69411   -25258.101   -26168.697   -156.02929   -157.49061   -188.16514   -122.43212    41.183005    41.183005    82.366011 
   12900    869.37404   -25258.079    -26156.97    55.527093    56.174034    344.09642   -233.68917    41.184181    41.184181    82.368362 
   13000    877.66098   -25257.987   -26165.446   -64.883287   -150.20705   -417.17799    372.73518    41.185555    41.185555     82.37111 
   13100    874.79253   -25257.914   -26162.408   -132.32636    307.91838   -438.09498   -266.80249    41.186563    41.186563    82.373126 
   13200    881.52399   -25257.863   -26169.316   -411.06844   -538.32546   -60.130062   -634.74981    41.186715    41.186715    82.373429 
   13300    870.06158   -25257.812   -26157.413    124.02272    -228.4566    357.82227    242.70249    41.185776    41.185776    82.371553 
   13400    877.18038   -25257.763   -26164.726   -65.785434   -13.970365    151.21093   -334.59687    41.184704    41.184704    82.369408 
   13500     873.9951   -25257.732   -26161.401    18.248316    96.627387   -183.63186    141.74942    41.183635    41.183635     82.36727 
   13600    865.60354   -25257.696   -26152.688    307.29272     570.9608     69.13085    281.78651    41.182976    41.182976    82.365951 
   13700    877.80893   -25257.626   -26165.239     3.904202   -154.80907   -107.53516    274.05683    41.183276    41.183276    82.366552 
   13800    865.98042   -25257.614   -26152.996    262.47698    155.89356    326.79261    304.74477    41.183552    41.183552    82.367104 
   13900    880.17979    -25257.63   -26167.694   -103.70235   -85.974281   -294.01126    68.878484    41.184032    41.184032    82.368064 
   14000    876.67724   -25257.661   -26164.103    47.592954    496.49434   -504.03722    150.32175    41.184547    41.184547    82.369094 
   14100    880.26719   -25257.691   -26167.845   -159.86637   -235.98054   -229.94741   -13.671157    41.185248    41.185248    82.370497 
   14200    876.93164   -25257.695     -26164.4   -58.458648     106.4948   -204.80472   -77.066021    41.185774    41.185774    82.371548 
   14300    881.91193    -25257.67   -26169.524   -316.53439   -300.90448   -190.55057   -458.14811    41.186305    41.186305     82.37261 
   14400    871.31528   -25257.656   -26158.554    103.95823    46.742113    434.74144   -169.60887    41.186262    41.186262    82.372525 
   14500    867.99376   -25257.667   -26155.131    136.73394    148.23919    151.89476    110.06788    41.185821    41.185821    82.371641 
   14600    876.78761   -25257.705   -26164.261   -43.706955    -175.2563   -419.17699    463.31243    41.184758    41.184758    82.369517 
   14700    875.84213   -25257.735   -26163.313     36.21711   -75.540602    192.14948   -7.9575508    41.183578    41.183578    82.367156 
   14800    871.88829   -25257.732   -26159.223    169.39125   -24.021706    407.62042    124.57504    41.182973    41.182973    82.365947 
   14900    875.42032   -25257.736   -26162.879    24.681032   -174.91878   -146.76345    395.72533    41.182686    41.182686    82.365371 
   15000    871.95349   -25257.733   -26159.291    145.38132   -12.817302    135.12857    313.83268    41.182803    41.182803    82.365607 
   15100    871.06428   -25257.727   -26158.366    177.05138    278.43427     205.6581    47.061778    41.183305    41.183305     82.36661 
   15200    873.12609   -25257.749    -26160.52    83.593234    69.074262   -81.944555    263.64999    41.183843    41.183843    82.367686 
   15300    872.94467   -25257.811   -26160.393    43.887776    190.88268   -797.99571    738.77635    41.184263    41.184263    82.368526 
   15400    880.11464    -25257.87   -26167.867    -131.2754    8.5146698   -151.89609   -250.44477    41.184671    41.184671    82.369341 
   15500     877.3378   -25257.944    -26165.07    -49.12901    189.21836   -18.668822   -317.93657    41.184925    41.184925     82.36985 
   15600    869.81582   -25257.991   -26157.339    74.374997   -124.35325    492.72869   -145.25045    41.185474    41.185474    82.370949 
   15700    871.79636   -25258.024    -26159.42    16.307124   -71.122795    295.01327    -174.9691      41.1859      41.1859    82.371801 
   15800    869.26776   -25258.068   -26156.849    95.855105     71.71519    124.85451    90.995613    41.185918    41.185918    82.371836 
   15900    877.32936   -25258.148   -26165.264   -142.05481   -236.94231   -23.344967   -165.87716    41.185377    41.185377    82.370754 
   16000     883.0095   -25258.218   -26171.207   -249.25804   -254.83643   -316.00571   -176.93197    41.184474    41.184474    82.368949 
   16100    879.46126   -25258.267   -26167.588   -149.57757    -223.7026    10.441663   -235.47178    41.183219    41.183219    82.366439 
   16200    873.22718   -25258.308   -26161.183    70.937631    129.07897    32.344262    51.389658    41.182057    41.182057    82.364114 
   16300    870.51289   -25258.338   -26158.407    171.84136    72.324606    240.47232    202.72715    41.181441    41.181441    82.362881 
   16400    873.21581   -25258.304   -26161.167     95.27747    381.34953    161.24188     -256.759    41.181827    41.181827    82.363654 
   16500    884.38307   -25258.275   -26172.684   -86.795406    -153.8105    -108.9252    2.3494808    41.182828    41.182828    82.365656 
   16600    874.27302   -25258.304    -26162.26    43.243794   -136.06729    116.04381    149.75487    41.183846    41.183846    82.367692 
   16700    875.38034   -25258.314   -26163.415   -59.499035   -218.89833    272.99306   -232.59184    41.185004    41.185004    82.370008 
   16800    884.67537   -25258.322   -26173.034   -302.10548   -195.72542   -191.54546   -519.04556    41.186031    41.186031    82.372062 
   16900    870.62275   -25258.333   -26158.515   -39.385393   -183.01362    68.560509   -3.7030701    41.186359    41.186359    82.372718 
   17000    871.48723   -25258.336   -26159.412   -55.017026    169.09754    121.88505   -456.03366     41.18596     41.18596     82.37192 
   17100    873.19634     -25258.3   -26161.143   -119.60122   -319.73186   -57.940234    18.868426     41.18514     41.18514     82.37028 
   17200    874.07997   -25258.274    -26162.03    58.810117     239.5646   -136.63755    73.503303    41.183662    41.183662    82.367324 
   17300    871.33178   -25258.257   -26159.172    150.02889     309.6316     534.5726   -394.11754    41.182234    41.182234    82.364469 
   17400    879.42337   -25258.231   -26167.513   -61.183308    397.10829   -533.53291   -47.125307    41.181523    41.181523    82.363046 
   17500    872.60172   -25258.211   -26160.439    236.98899    144.55422    17.897968     548.5148    41.181159    41.181159    82.362318 
   17600    878.21014   -25258.209   -26166.236  -0.11174098    249.45685    2.1836166   -251.97569    41.181524    41.181524    82.363049 
   17700    876.28576    -25258.22   -26164.257   -66.150339   -224.45012   -253.54951    279.54862    41.182259    41.182259    82.364518 
   17800    875.82616   -25258.245   -26163.807    -62.06266   -66.238503   -66.961533   -52.987943    41.182903    41.182903    82.365805 
   17900    876.41391   -25258.251   -26164.421   -115.37565   -30.838221    60.597212   -375.88595    41.183729    41.183729    82.367458 
   18000    866.59865   -25258.269   -26154.291    263.54392    208.42132    260.26724    321.94319    41.184289    41.184289    82.368578 
   18100    877.89834   -25258.275    -26165.98   -120.10841   -164.99099    35.596764   -230.93099    41.184868    41.184868    82.369737 
   18200    882.44566   -25258.239   -26170.646   -259.73597   -354.45664    -197.9631   -226.78817    41.185504    41.185504    82.371007 
   18300    878.23105   -25258.198   -26166.246    -145.3514   -130.38698   -370.80605    65.138832    41.185672    41.185672    82.371344 
   18400    873.91596   -25258.176   -26161.763   -3.7750203    74.918946    56.397493    -142.6415    41.185207    41.185207    82.370414 
   18500    872.11309   -25258.136   -26159.859    43.348158   -131.77883    298.99713   -37.173822    41.184485    41.184485     82.36897 
   18600    867.14374   -25258.082   -26154.667    223.96244    475.54614   -94.664686    291.00585    41.183708    41.183708    82.367417 
   18700    876.18976   -25258.037   -26163.975    45.768761   -163.77861    292.76391    8.3209815    41.182868    41.182868    82.365735 
   18800    865.26842   -25257.979   -26152.625    321.58438    342.73845    145.34054    476.67415    41.182538    41.182538    82.365077 
   18900     876.4173   -25257.896   -26164.069     121.8866   -142.81572    176.27879    332.19672    41.183008    41.183008    82.366016 
   19000    878.93582    -25257.85   -26166.628   -94.761219    26.787696    10.295928   -321.36728    41.183727    41.183727    82.367453 
   19100    871.45037    -25257.77   -26158.808    131.13245    372.19356   -78.397421    99.601205    41.184725    41.184725    82.369449 
   19200    881.03225   -25257.682   -26168.627   -247.38085   -20.079008   -507.36643   -214.69711    41.185603    41.185603    82.371205 
   19300    865.65336   -25257.592   -26152.636    155.08064    260.34749   -96.581785    301.47621    41.185703    41.185703    82.371405 
   19400    881.94866   -25257.491   -26169.384    -146.6455    -246.7167   -190.16797   -3.0518095    41.185581    41.185581    82.371161 
   19500    881.77868   -25257.436   -26169.152   -255.05116   -274.07884   -234.18245   -256.89218    41.185108    41.185108    82.370215 
   19600    871.52056   -25257.352   -26158.462    103.39134    -360.5822    533.42069    137.33554    41.184618    41.184618    82.369236 
   19700    879.05456   -25257.266   -26166.166   -56.163618    168.75784    -269.9515   -67.297204    41.184159    41.184159    82.368318 
   19800    878.31645   -25257.175   -26165.312   -108.91231   -457.07861   -270.33697    400.67866    41.183914    41.183914    82.367829 
   19900    878.22205   -25257.111   -26165.151   -97.599026    116.92994   -222.71726   -187.00976     41.18366     41.18366    82.367321 
   20000    872.47494   -25257.052   -26159.149    206.16905   -119.82307    426.56144    311.76877    41.183531    41.183531    82.367062 
   20100    868.55136   -25257.035   -26155.075    177.80009   -54.256729    378.13307    209.52395     41.18344     41.18344    82.366881 
   20200    877.07058   -25256.977   -26163.826   -62.800639   -282.88915    5.3858382    89.101396    41.183994    41.183994    82.367988 
   20300    876.05276   -25256.959   -26162.756    44.217641     551.0161   -452.71512    34.351947    41.184426    41.184426    82.368852 
   20400    876.30856   -25256.942   -26163.002   -24.356653    26.403507    116.71174    -216.1852    41.185064    41.185064    82.370127 
   20500    879.54244   -25256.946    -26166.35   -153.77028   -74.076966    -251.5393   -135.69456    41.185696    41.185696    82.371393 
   20600    880.08237    -25256.98   -26166.942   -285.92536    -355.6039   -344.09941   -158.07276    41.185785    41.185785    82.371571 
   20700    873.43599   -25257.014   -26160.105    21.632359    255.69218    1.0174715   -191.81257    41.185366    41.185366    82.370731 
   20800    874.71883   -25257.077   -26161.494    17.751446   -255.92816    124.10195    185.08054    41.184719    41.184719    82.369438 
   20900    879.15107   -25257.105   -26166.105   -205.62754   -213.93444   -202.95155   -199.99662    41.184186    41.184186    82.368372 
   21000    873.67743    -25257.16   -26160.501    150.37615    394.41028    78.281684   -21.563525    41.183433    41.183433    82.366866 
   21100    879.96331   -25257.211   -26167.051   -6.7889917    8.4209592    24.298818   -53.086752     41.18323     41.18323    82.366461 
   21200    878.01916   -25257.262   -26165.091   -12.436054   -198.59787    270.09532   -108.80562    41.183757    41.183757    82.367515 
   21300    878.19514   -25257.338   -26165.349   -179.64534   -360.96877   -109.92808   -68.039174    41.184438    41.184438    82.368875 
   21400    869.92202   -25257.386   -26156.844    107.82988   -268.65298    639.80734   -47.664724    41.184927    41.184927    82.369853 
   21500    872.86055   -25257.388   -26159.884    45.383325     158.1888   -308.19081    286.15199    41.185539    41.185539    82.371077 
   21600    865.08093   -25257.418    -26151.87    128.19103    174.62694    207.48158    2.4645621    41.185648    41.185648    82.371296 
   21700    873.49769   -25257.427   -26160.582   -86.633114    -229.8559   -166.74525    136.70181    41.185323    41.185323    82.370646 
   21800    880.08771   -25257.467   -26167.435    -28.56308    439.40337   -125.91873   -399.17387    41.184398    41.184398    82.368795 
   21900     866.7883   -25257.565   -26153.783    263.71614     162.3639    549.89959    78.884943    41.183456    41.183456    82.366912 
   22000    885.69241   -25257.623   -26173.386   -216.92736   -294.06952    35.783521    -392.4961    41.183129    41.183129    82.366258 
   22100    876.19699   -25257.641   -26163.587   -8.3595808     164.5994   -176.82628   -12.851863    41.183279    41.183279    82.366557 
   22200    865.55454   -25257.616   -26152.558    223.99852    442.24217    336.34422   -106.59082    41.184001    41.184001    82.368002 
   22300    875.78037   -25257.592   -26163.106   -15.194419   -73.135624    106.47051   -78.918145    41.184753    41.184753    82.369506 
   22400    872.86445   -25257.595   -26160.095    9.9978862    281.36882   -178.27797   -73.097195    41.185068    41.185068    82.370136 
   22500    872.64159   -25257.609   -26159.878    4.9743152    72.982867   -170.91592      112.856    41.185028    41.185028    82.370057 
   22600    890.12945    -25257.62   -26177.971   -309.99267   -465.29733   -140.00351   -324.67718    41.184898    41.184898    82.369796 
   22700    870.00861   -25257.663    -26157.21    186.01069    632.05305   -288.44243    214.42145    41.184691    41.184691    82.369381 
   22800     877.3921    -25257.66   -26164.841    119.05788   -71.968721    76.806951    352.33542    41.185016    41.185016    82.370033 
   22900    868.97724   -25257.696   -26156.177    82.950048    299.57149   -242.20807    191.48673    41.185346    41.185346    82.370693 
   23000    883.12436   -25257.702    -26170.81   -242.44097   -140.21336   -531.73478   -55.374761    41.185586    41.185586    82.371172 
   23100    873.39309   -25257.744   -26160.791   -80.067322      151.941   -195.02518   -197.11778    41.185112    41.185112    82.370224 
   23200    873.35281   -25257.751   -26160.755     -8.78176    140.12652   -639.90513    473.43333    41.184441    41.184441    82.368883 
   23300    871.27171   -25257.758   -26158.611    173.05696    168.17287    89.243835    261.75417    41.183582    41.183582    82.367164 
   23400    874.07348    -25257.73    -26161.48    168.63765    477.76829    -159.0683    187.21297    41.183449    41.183449    82.366898 
   23500    873.45608   -25257.734   -26160.846    18.884801    24.649394    150.86966   -118.86465    41.183834    41.183834    82.367669 
   23600     872.0713   -25257.722   -26159.402    22.383451    333.39691   -400.16301    133.91646    41.184512    41.184512    82.369025 
   23700    878.73325   -25257.691   -26166.259   -139.86981     121.0167   -234.11448   -306.51165     41.18521     41.18521    82.370419 
   23800    873.12585   -25257.679    -26160.45   -8.5340249   -147.72223    51.788397    70.331756    41.185478    41.185478    82.370957 
   23900    863.27138   -25257.695   -26150.276    190.01524   -118.74115    376.99979    311.78709    41.185017    41.185017    82.370034 
   24000    868.40343   -25257.687   -26155.574    248.69657    185.77217    357.29894     203.0186    41.184323    41.184323    82.368646 
   24100    871.06327   -25257.707   -26158.344    114.34649    63.724079    386.90178   -107.58639    41.183637    41.183637    82.367274 
   24200    874.80536   -25257.685   -26162.192    39.944434   -148.33944    -96.57193    364.74467     41.18374     41.18374     82.36748 
   24300    876.77747   -25257.678   -26164.224    -49.11881   -309.47747    -169.1778    331.29884    41.184096    41.184096    82.368192 
   24400    879.29772   -25257.692   -26166.843   -154.59862   -234.16747   -148.35262   -81.275771    41.184163    41.184163    82.368326 
   24500    873.72239   -25257.715   -26161.102    -58.51092   -32.132312    219.87898   -363.27943    41.183757    41.183757    82.367515 
   24600    874.66972   -25257.738   -26162.104    91.479201    137.84837   -255.37857     391.9678    41.183309    41.183309    82.366617 
   24700    864.94907   -25257.797   -26152.113     253.2618     587.9781   -293.72171    465.52903    41.182953    41.182953    82.365906 
   24800    885.77019   -25257.794   -26173.637   -273.87209    63.030657   -505.72034    -378.9266    41.183458    41.183458    82.366915 
   24900    871.91767   -25257.855   -26159.376    142.99423    255.21856    292.91762   -119.15347    41.183415    41.183415     82.36683 
   25000    875.06317   -25257.852   -26162.625   -99.913378   -42.622044    -157.4999   -99.618189    41.184019    41.184019    82.368037 
   25100    871.08212    -25257.86   -26158.517    92.739966   -245.76508    600.38003   -76.395052    41.184383    41.184383    82.368765 
   25200    884.75534   -25257.842   -26172.637   -249.43984    179.61775   -85.677488   -842.25978    41.184912    41.184912    82.369825 
   25300     880.3142   -25257.855   -26168.058   -205.48229    186.52231   -291.94361   -511.02556    41.185112    41.185112    82.370224 
   25400    868.59346   -25257.891   -26155.975    134.60501    113.71729   -244.69686     534.7946     41.18503     41.18503    82.370059 
   25500    871.39236   -25257.941   -26158.919    86.778771   -322.53501    68.636696    514.23462    41.184808    41.184808    82.369616 
   25600    866.02569   -25257.958   -26153.387    205.29652    365.56325    188.63216    61.694165    41.184657    41.184657    82.369314 
   25700    878.16759   -25257.915   -26165.898   -83.808014   -138.76122    336.77824   -449.44106    41.184886    41.184886    82.369772 
   25800    874.76588   -25257.918   -26162.384   -53.854474   -177.50392    681.19958   -665.25907    41.184724    41.184724    82.369448 
   25900    880.51767   -25257.903   -26168.316   -195.53826   -396.70278   -91.070329   -98.841684    41.184394    41.184394    82.368788 
   26000    864.40331   -25257.882   -26151.634     316.1863    620.80225    76.445934    251.31073    41.183869    41.183869    82.367738 
   26100    874.66994   -25257.838   -26162.205   -130.66532   -385.68965   -119.57929    113.27299    41.183559    41.183559    82.367118 
   26200    872.71176   -25257.789   -26160.131    35.414692   -109.70216    162.81062    53.135617    41.183037    41.183037    82.366075 
   26300    865.44418   -25257.738   -26152.566     361.5235    877.93653    115.62145    91.012528    41.182738    41.182738    82.365476 
   26400    875.03542   -25257.624   -26162.369   -43.696672   -256.42343   -44.736493     170.0699     41.18362     41.18362     82.36724 
   26500    880.29536   -25257.517   -26167.701   -210.51231   -414.91352   -54.198829   -162.42457    41.184515    41.184515    82.369031 
   26600    873.90927    -25257.44    -26161.02   -29.255569    -251.9748    86.491771    77.716318    41.184999    41.184999    82.369999 
   26700    868.57357   -25257.346   -26155.409    109.41063    423.55611    -164.8303    69.506079    41.185426    41.185426    82.370853 
   26800    877.27389   -25257.221    -26164.28    -173.0649    -245.9279    -101.1722    -172.0946    41.185782    41.185782    82.371564 
   26900    871.71592   -25257.136   -26158.449    95.918176    178.07795     35.06259    74.613988    41.185314    41.185314    82.370628 
   27000    880.43391   -25257.058   -26167.384   -66.717823    48.202793    228.54579   -476.90206    41.184675    41.184675    82.369349 
   27100    865.20841    -25256.97   -26151.553    299.12732    56.524019    720.74012    120.11782     41.18424     41.18424     82.36848 
   27200    872.45852   -25256.866   -26158.946    105.16698   -125.86575     951.6986   -510.33191    41.184252    41.184252    82.368504 
   27300    882.74944   -25256.806   -26169.526   -69.041575   -415.31712    226.03308   -17.840685    41.184478    41.184478    82.368956 
   27400    880.85437   -25256.791   -26167.552   -106.66106   -268.59331     11.73701   -63.126881    41.184805    41.184805     82.36961 
   27500    878.50584    -25256.77   -26165.103   -85.382406    81.764642   -325.91322   -11.998641    41.185235    41.185235     82.37047 
   27600    876.29887   -25256.708   -26162.758    -141.5608   -126.51901   -352.57532    54.411924    41.185805    41.185805    82.371611 
   27700    869.58316   -25256.672   -26155.779    69.200307   -185.23824    316.14482    76.694338    41.185732    41.185732    82.371465 
   27800    871.82252   -25256.636   -26158.059    32.835596   -237.77054    107.35807    228.91926    41.185352    41.185352    82.370705 
   27900    877.14213   -25256.575   -26163.497     -154.916     11.58992   -305.04473   -171.29319    41.185045    41.185045    82.370091 
   28000    884.05818   -25256.535   -26170.609   -242.91945   -154.79055   -239.35762   -334.61018     41.18411     41.18411    82.368219 
   28100    869.22633    -25256.52   -26155.258    278.46506    470.54159    389.23097   -24.377376    41.182879    41.182879    82.365759 
   28200    886.25028   -25256.459   -26172.799   -146.14301    279.72876   -722.87489    4.7171142    41.182731    41.182731    82.365463 
   28300    881.35086   -25256.448   -26167.722   -44.065768   -422.98306    95.359507    195.42625    41.182947    41.182947    82.365894 
   28400    876.07036   -25256.465   -26162.279    81.298127    98.988855   -264.10114    409.00667    41.183605    41.183605    82.367211 
   28500    875.15773   -25256.515   -26161.386    5.8454515    86.626997   -192.30117    123.21053    41.184293    41.184293    82.368586 
   28600     868.4935   -25256.505   -26154.485    144.67629    485.26597    378.57454   -429.81165    41.185306    41.185306    82.370611 
   28700    882.05281   -25256.488   -26168.488   -294.46002    94.887746   -387.75309    -590.5147    41.186381    41.186381    82.372762 
   28800    873.02759   -25256.495   -26159.163    -40.36493    303.80682   -421.24584   -3.6557732    41.186586    41.186586    82.373172 
   28900    878.28351   -25256.446   -26164.549     -137.545   -95.320957   -185.21931   -132.09475    41.186508    41.186508    82.373015 
   29000    873.91861   -25256.421   -26160.011   -115.51769   -391.88358    -68.10341    113.43394    41.185957    41.185957    82.371914 
   29100    861.73185   -25256.413   -26147.403    427.31576    566.76529    198.02308    517.15892    41.184632    41.184632    82.369263 
   29200     879.9501   -25256.386   -26166.212   -25.857055   -156.89352    53.006322    26.316031    41.183718    41.183718    82.367437 
   29300    875.69548   -25256.409   -26161.836    97.965776    146.30242   -85.536892     233.1318    41.182928    41.182928    82.365856 
   29400    875.92934   -25256.463   -26162.132     138.1687   -80.594174    235.80687    259.29341    41.182699    41.182699    82.365398 
   29500    877.69928   -25256.519   -26164.018   -44.233788   -4.4065175    169.64258   -297.93743    41.183362    41.183362    82.366723 
   29600    870.84224   -25256.584   -26156.993    163.11604    291.76827   -199.99324    397.57309    41.184392    41.184392    82.368784 
   29700    879.27754   -25256.693   -26165.824   -234.49697    159.29443   -720.02629   -142.75904    41.185243    41.185243    82.370486 
   29800    873.93378   -25256.753   -26160.358   -54.014247    3.9175945   -80.037852   -85.922482    41.185705    41.185705    82.371409 
   29900     865.4477   -25256.819   -26151.651    165.13227    183.34195   -373.83624    685.89109    41.185379    41.185379    82.370759 
   30000    873.69204   -25256.841   -26160.196    54.560284   -158.06939    56.571531    265.17871    41.184777    41.184777    82.369554 
   30100    876.71847   -25256.816   -26163.301   -36.099528   -95.906401   -64.845678    52.453495    41.184519    41.184519    82.369039 
   30200    867.74324   -25256.799   -26154.004    176.51571    100.23337    155.24113    274.07262    41.184519    41.184519    82.369039 
   30300    870.37866   -25256.792   -26156.721    160.59954   -398.13603    871.72091     8.213744    41.184592    41.184592    82.369185 
   30400    874.18514   -25256.786   -26160.651     49.03143    212.54352   -138.44776    72.998527     41.18475     41.18475      82.3695 
   30500    875.80725   -25256.819   -26162.362    26.248566   -299.79994   -279.44536      657.991    41.184592    41.184592    82.369185 
   30600    867.02937   -25256.849   -26153.316    236.10441    18.589294    241.16303     448.5609     41.18449     41.18449     82.36898 
   30700    869.39522   -25256.855   -26155.768    244.88216    -344.6177    744.87097    334.39322    41.184656    41.184656    82.369311 
   30800    875.93646   -25256.859   -26162.535   -35.442343   -365.02635    -411.9431    670.64243    41.185169    41.185169    82.370337 
   30900    881.11373   -25256.889   -26167.918   -129.22676     333.7885    -275.6497   -445.81909    41.185262    41.185262    82.370524 
   31000    865.46353   -25256.958   -26151.806    225.54789    273.47882    315.37466    87.790202    41.185165    41.185165     82.37033 
   31100    876.82974   -25256.937   -26163.537   -55.598333   -227.07416   -384.52145    444.80061    41.185741    41.185741    82.371482 
   31200    870.38786   -25256.949   -26156.888   -18.128746   -513.52175    72.103847    387.03167    41.185737    41.185737    82.371473 
   31300    876.38994   -25256.944   -26163.089   -119.85833    63.208354    79.524658     -502.308    41.185504    41.185504    82.371008 
   31400    879.14992    -25256.94   -26165.939   -93.084038    62.689822    74.421714   -416.36365    41.185095    41.185095     82.37019 
   31500    875.47678   -25256.999     -26162.2    35.403341   -148.28874    384.74521   -130.24645    41.184173    41.184173    82.368346 
   31600    883.04049   -25256.997   -26170.019   -112.02664   -223.17285     211.4128   -324.31987     41.18411     41.18411    82.368219 
   31700    870.88108   -25257.023   -26157.472    192.04197   -307.16335    966.51712   -83.227857    41.184349    41.184349    82.368698 
   31800    874.59495    -25257.02   -26161.309    155.76555    119.18248    793.05653   -444.94236    41.185233    41.185233    82.370466 
   31900    867.37976   -25257.012   -26153.841    135.91715    91.951874    402.98709   -87.187504    41.186415    41.186415     82.37283 
   32000    877.55972   -25256.993   -26164.347   -231.42838   -76.591771   -105.76737   -511.92599    41.187232    41.187232    82.374465 
   32100    876.26572   -25256.998   -26163.015    -93.08169   -50.031016    307.50931   -536.72337    41.186897    41.186897    82.373794 
   32200    873.43524   -25256.998   -26160.088    5.5538383   -217.87362   -290.45359    524.98872    41.186047    41.186047    82.372093 
   32300    876.16957   -25257.027   -26162.945   -27.070236   -88.356215    226.82306   -219.67755    41.184707    41.184707    82.369414 
   32400    861.08602   -25257.041   -26147.363    359.65901    419.84145      169.305    489.83057    41.183273    41.183273    82.366545 
   32500    870.85293   -25257.011   -26157.431    290.17894    57.341973  -0.44671912    813.64157    41.182549    41.182549    82.365098 
   32600    871.67124   -25257.033   -26158.299    283.00874    5.6656342    508.02308     335.3375    41.182496    41.182496    82.364992 
   32700    878.35306   -25257.033   -26165.207   -146.80077   -835.87766    259.10196     136.3734     41.18363     41.18363     82.36726 
   32800    871.92833   -25257.001   -26158.533    73.146611    116.18985   -160.42367    263.67365    41.185087    41.185087    82.370175 
   32900    882.62099   -25257.002    -26169.59   -274.50786   -172.53446    -311.7111   -339.27801    41.186256    41.186256    82.372512 
   33000    872.83948   -25257.014   -26159.488   -63.418109   -590.28206    71.309971    328.71776    41.186631    41.186631    82.373262 
   33100    873.29098   -25257.051   -26159.992    31.905237    202.17017   -429.87981    323.42534    41.186162    41.186162    82.372323 
   33200    882.56467   -25257.097   -26169.626   -279.14086   -2.5970284    -666.4315   -168.39406    41.185065    41.185065    82.370131 
   33300    866.22862   -25257.156   -26152.795    248.85788     157.9128   -26.905022    615.56586    41.183504    41.183504    82.367008 
   33400    877.78769   -25257.167   -26164.757    90.315912    455.68336   -102.90915   -81.826474    41.182401    41.182401    82.364801 
   33500    874.39318   -25257.228   -26161.308    128.72359    386.06456   -357.99546    358.10168    41.181731    41.181731    82.363461 
   33600    885.14045   -25257.267    -26172.46    -155.5869     272.7247   -680.22614    -59.25927    41.181951    41.181951    82.363902 
   33700    873.52407   -25257.348    -26160.53    123.92776    559.22654   -87.544602   -99.898657    41.182552    41.182552    82.365104 
   33800    868.89475   -25257.385    -26155.78    127.98762   -327.25953    369.78403    341.43835    41.184122    41.184122    82.368243 
   33900    876.86948   -25257.395   -26164.036   -43.170648   -65.292133    15.709346   -79.929157    41.186216    41.186216    82.372432 
   34000    881.96751   -25257.427   -26169.339   -298.54532   -354.08251    -508.9707   -32.582755    41.187817    41.187817    82.375633 
   34100    862.27419   -25257.465   -26149.015    197.00391    599.41999   -117.02235     108.6141    41.188322    41.188322    82.376644 
   34200    879.99983   -25257.414   -26167.292   -326.98235   -88.519532   -741.82618   -150.60135    41.188538    41.188538    82.377076 
   34300    868.26557   -25257.425    -26155.17    49.306934   -29.202634   -317.94773    495.07117    41.187027    41.187027    82.374053 
   34400    866.49941   -25257.428   -26153.347    130.98809    223.36091   -53.576014    223.17937    41.184624    41.184624    82.369248 
   34500    875.90924   -25257.438   -26163.086    77.523555    292.72196    47.886234   -108.03753    41.181966    41.181966    82.363932 
   34600    881.50618   -25257.426   -26168.861    20.760741    281.69407   -151.28658   -68.125263    41.180155    41.180155    82.360311 
   34700    874.73254   -25257.438    -26161.87    171.11878    93.328012   -268.82623    688.85456    41.179393    41.179393    82.358787 
   34800    868.82926   -25257.478   -26155.806    408.87254    336.02297    552.47863    338.11603    41.179528    41.179528    82.359056 
   34900    875.93863   -25257.524   -26163.202     135.9761      409.498    -104.4234    102.85371    41.180746    41.180746    82.361491 
   35000    870.75297   -25257.578   -26157.895    136.74621   -46.493135   -96.582503    553.31427    41.182665    41.182665    82.365331 
   35100    875.91123   -25257.582   -26163.232    5.6435794    37.027646    42.765734   -62.862642    41.185124    41.185124    82.370248 
   35200    871.49559   -25257.612   -26158.697   -93.043682    445.80823   -620.68014   -104.25914    41.187175    41.187175    82.374349 
   35300    867.07962   -25257.602   -26154.121    26.580262    34.059041    -265.7229    311.40465    41.188407    41.188407    82.376815 
   35400    876.64249   -25257.608   -26164.015   -260.32203   -565.84543    136.20265    -351.3233    41.188234    41.188234    82.376467 
   35500    876.32414   -25257.579   -26163.656   -146.32281   -253.89472    -255.4092    70.335489    41.186806    41.186806    82.373613 
   35600    874.03714   -25257.615   -26161.328   -10.823798    296.70029   -184.59905   -144.57264    41.184142    41.184142    82.368284 
   35700    880.07238   -25257.606   -26167.558    -22.00301    187.90338    172.86564   -426.77805    41.181734    41.181734    82.363469 
   35800    878.96243   -25257.677   -26166.482    61.586051    566.27154   -196.84509    -184.6683    41.179764    41.179764    82.359528 
   35900    866.87931   -25257.751   -26154.062     428.1613    331.25182    1118.7765    -165.5444    41.179062    41.179062    82.358124 
   36000    872.50011   -25257.799   -26159.922    306.19791    750.37463    450.43181   -282.21271    41.179923    41.179923    82.359845 
   36100    882.83216   -25257.874    -26170.68   -90.971551   -295.10417    595.76043   -573.57092    41.181711    41.181711    82.363421 
   36200    870.28088   -25257.978   -26157.807    73.272118    298.86912    340.91967   -419.97243    41.183946    41.183946    82.367891 
   36300    879.62048       -25258   -26167.486   -256.50673   -306.74426   -183.88343   -278.89251    41.186637    41.186637    82.373273 
   36400    868.45854   -25258.011   -26155.956    10.818663   -566.51813    654.60672     -55.6326    41.188719    41.188719    82.377437 
   36500    883.18789    -25258.02   -26171.194   -414.50937    -785.5934   -70.217963   -387.71676    41.189701    41.189701    82.379403 
   36600    876.54207   -25258.046   -26164.348     -279.491   -750.98208    376.64687   -464.13778    41.188852    41.188852    82.377704 
   36700    875.31949   -25258.039   -26163.077   -81.350312   -375.72738    277.66183   -145.98538    41.186783    41.186783    82.373565 
   36800    872.56439   -25258.015   -26160.205    9.2782684    18.000666    245.25299   -235.41885    41.184103    41.184103    82.368206 
   36900     874.7105   -25257.962   -26162.371    138.90065    14.547681    337.78045    64.373831    41.181768    41.181768    82.363537 
   37000    861.99718    -25257.92   -26149.183    475.99158    921.86365   -46.979028    553.09013    41.180419    41.180419    82.360838 
   37100    882.85572   -25257.912   -26170.742    75.741512    93.547534    271.22247   -137.54546    41.180233    41.180233    82.360466 
   37200     868.6337   -25257.954   -26156.079    361.26431    801.17469   -43.256075     325.8743    41.181145    41.181145    82.362289 
   37300    875.67583   -25257.972   -26163.379    78.325923    30.295236    93.450544    111.23199    41.183447    41.183447    82.366893 
   37400    871.70277   -25257.971    -26159.27   -17.019848   -570.44107    531.08329    -11.70176    41.186365    41.186365    82.372731 
   37500    878.10726   -25257.997   -26165.918   -306.34623   -801.54655   -128.61523      11.1231    41.188506    41.188506    82.377012 
   37600    871.62889   -25258.039   -26159.262   -223.53401   -538.77713    154.02574   -285.85063    41.189025    41.189025     82.37805 
   37700    882.80816   -25258.025   -26170.806   -364.36608   -758.27506   -301.65667   -33.166526    41.188262    41.188262    82.376524 
   37800    879.51038   -25258.057   -26167.429    -299.3394   -286.64613   -632.43547    21.063419    41.186185    41.186185     82.37237 
   37900    874.63516   -25258.085   -26162.416   -33.124402   -262.56425    234.10881   -70.917765    41.183386    41.183386    82.366772 
   38000    873.54904   -25258.123   -26161.331     265.1298    -274.6611    826.05909    243.99142     41.18058     41.18058     82.36116 
   38100     884.7402   -25258.116   -26172.895   -86.938263    125.37561     163.9013    -550.0917    41.179053    41.179053    82.358105 
   38200     865.7916   -25258.133    -26153.32      433.808    198.42971    686.11216    416.88212    41.178677    41.178677    82.357354 
   38300    889.04425   -25258.131    -26177.36   -144.95444   -224.51188   -56.635819   -153.71561    41.179886    41.179886    82.359773 
   38400    868.97311   -25258.158   -26156.635     261.1548   -91.431903    903.08044   -28.184129    41.181877    41.181877    82.363755 
   38500    869.92222   -25258.173   -26157.631    125.04699     144.4826     31.56368    199.09468    41.184633    41.184633    82.369266 
   38600    879.90045   -25258.169   -26167.944   -335.08045   -607.65677    87.290383   -484.87495     41.18722     41.18722    82.374439 
   38700     869.8344   -25258.196   -26157.562   -169.53293   -496.59238    207.75193   -219.75833     41.18823     41.18823    82.376461 
   38800    868.15345   -25258.243   -26155.872   -63.450115   -13.965554   -9.9794608   -166.40533     41.18757     41.18757     82.37514 
   38900    872.27465   -25258.259   -26160.149   -43.322341   -81.430828    222.10832   -270.64452    41.185838    41.185838    82.371676 
   39000    882.85263   -25258.219   -26171.046   -169.57273   -284.54241   -205.88858   -18.287183    41.183993    41.183993    82.367985 
   39100    867.40061   -25258.205   -26155.056    203.73816   -484.97143    547.53295    548.65295    41.181961    41.181961    82.363922 
   39200    872.75605    -25258.18   -26160.568    206.32289     197.6709    123.71433    297.58344    41.180614    41.180614    82.361227 
   39300    869.86258   -25258.162   -26157.558     352.8266    353.58697    285.15486    419.73797    41.180487    41.180487    82.360974 
   39400    879.73206   -25258.144   -26167.745   -81.641701   -99.001346   -211.85414    65.930382    41.181513    41.181513    82.363027 
   39500    871.34591   -25258.144   -26159.073    90.698486      327.049   -290.25619    235.30265    41.182838    41.182838    82.365676 
   39600    872.18923   -25258.168    -26159.97    8.4190271   -42.844255    0.1632385    67.938098     41.18414     41.18414     82.36828 
   39700    878.26864   -25258.188   -26166.276   -122.58542    326.13684     83.43515   -777.32826    41.185161    41.185161    82.370321 
   39800    882.90755   -25258.191   -26171.075   -279.01503   -322.01848   -81.166371   -433.86023    41.185888    41.185888    82.371777 
   39900    864.10716   -25258.195    -26151.64    169.41533    525.21725   -17.152048   0.18079832    41.186035    41.186035    82.372071 
   40000    881.47076   -25258.162    -26169.56   -339.50476   -254.56538    -140.2567   -623.69221     41.18583     41.18583     82.37166 
   40100    875.54804    -25258.14   -26163.415    -120.3786   -202.48392    96.325609   -254.97748    41.184918    41.184918    82.369835 
   40200    875.86231   -25258.109   -26163.709   -29.597888     169.0918   -388.75228    130.86682    41.183542    41.183542    82.367085 
   40300    862.07778   -25258.056   -26149.403    380.50376    575.97178    330.79548    234.74401    41.182453    41.182453    82.364906 
   40400    871.94883   -25257.975   -26159.528    39.523121    292.55768    77.970906   -251.95922    41.182158    41.182158    82.364316 
   40500    875.79066   -25257.927   -26163.452    15.327509    263.41865   -445.70628    228.27016    41.182074    41.182074    82.364149 
   40600    872.39342   -25257.881   -26159.894      78.1539   -90.872116    206.47366    118.86015    41.182776    41.182776    82.365552 
   40700    869.86525   -25257.908   -26157.307    182.76077    506.67677   -261.76907     303.3746    41.183228    41.183228    82.366456 
   40800    880.73031   -25257.868   -26168.501   -212.32131    -30.76221   -387.86436   -218.33736    41.184492    41.184492    82.368984 
   40900    868.16135   -25257.857   -26155.494    184.86784   -113.85435    500.79902    167.65885    41.185401    41.185401    82.370802 
   41000    875.86982   -25257.829   -26163.436   -193.80945    274.88405   -297.95119   -558.36121    41.186107    41.186107    82.372215 
   41100    868.68061   -25257.801   -26155.975    19.628368   -21.958445   -53.806377    134.64993    41.185842    41.185842    82.371685 
   41200    878.08919   -25257.773   -26165.675   -128.98816   -212.38494   -394.64487    220.06533    41.184963    41.184963    82.369926 
   41300    872.94929   -25257.736   -26160.323    56.919232    131.98093    132.95057    -94.17381    41.183861    41.183861    82.367722 
   41400    873.63748   -25257.674   -26160.973    109.29535    623.31366   -381.21239    85.784777    41.183103    41.183103    82.366207 
   41500    875.53023   -25257.683   -26162.939   -27.582966   -491.16235      197.842    210.57145    41.182219    41.182219    82.364439 
   41600    876.66136   -25257.705   -26164.131    65.341394    61.448409    -141.4731    276.04887    41.181647    41.181647    82.363294 
   41700     878.4577   -25257.717       -26166   -20.937887   -13.269712   -141.61815    92.074206    41.181846    41.181846    82.363693 
   41800    868.80622    -25257.76   -26156.064    186.38871    349.19644    72.879986    137.08969    41.182125    41.182125     82.36425 
   41900    876.70578   -25257.767   -26164.239    33.267388    107.89109    58.766664   -66.855585    41.182817    41.182817    82.365634 
   42000    864.43975    -25257.78   -26151.569    267.62409    348.62588    161.71876    292.52763    41.183503    41.183503    82.367005 
   42100    875.84868   -25257.764    -26163.35   -32.457694   -167.06797    522.61353   -452.91864    41.184487    41.184487    82.368973 
   42200    875.91542   -25257.793   -26163.448   -97.056269   -492.18213   -81.186073    282.19939     41.18501     41.18501     82.37002 
   42300    873.63181   -25257.794   -26161.087   -2.1755358    241.02355   -291.33051    43.780351    41.185316    41.185316    82.370633 
   42400    876.98031   -25257.833   -26164.588    -130.5908   -445.63339    454.11688   -400.25589    41.184909    41.184909    82.369818 
   42500    866.64019   -25257.873   -26153.937    313.97443    293.17422    222.42561    426.32346    41.184157    41.184157    82.368314 
   42600    879.70129   -25257.883   -26167.452   -127.53753   -123.48757   -120.03547   -139.08956    41.183654    41.183654    82.367308 
   42700    871.39536   -25257.874   -26158.855    137.86766     33.59962    210.98146    169.02189    41.183269    41.183269    82.366538 
   42800     879.0711    -25257.86   -26166.777   -127.73704   -137.27171   -446.68726    200.74785    41.183339    41.183339    82.366677 
   42900    874.66819   -25257.845   -26162.209   -1.7359855    -595.6239    351.89502    238.52092    41.183536    41.183536    82.367072 
   43000    871.43795   -25257.838   -26158.863    142.63366    203.05384   -199.83551    424.68265    41.183916    41.183916    82.367832 
   43100     873.0595   -25257.812   -26160.514    30.701029     216.5624   -141.74725    17.287936    41.184717    41.184717    82.369433 
   43200    885.78874   -25257.775   -26173.638   -312.62535   -20.911555   -365.00762   -551.95689    41.185354    41.185354    82.370709 
   43300     875.8799   -25257.738   -26163.356   -132.61756    149.46605   -235.87807   -311.44066    41.185625    41.185625     82.37125 
   43400    881.58715   -25257.642   -26169.161   -254.56489    -370.0658   -123.63567   -269.99319    41.185838    41.185838    82.371675 
   43500    877.32527   -25257.609   -26164.721   -155.89934   -225.05884    29.229076   -271.86826     41.18515     41.18515    82.370299 
   43600     878.2355    -25257.59   -26165.643    -105.7962    -415.9217   -132.02911     230.5622     41.18385     41.18385    82.367701 
   43700    874.88238   -25257.602   -26162.189   -1.7069834   -83.470023     33.17988    45.169193    41.182425    41.182425     82.36485 
   43800    868.23726   -25257.575   -26155.291    289.56894    609.48662   -417.64078    676.86098    41.181552    41.181552    82.363105 
   43900    866.98893   -25257.566   -26153.991    289.01062    228.19785    463.52016    175.31385    41.181283    41.181283    82.362567 
   44000      881.101   -25257.557   -26168.573   -106.89001     81.84197   -55.543072   -346.96894    41.181772    41.181772    82.363544 
   44100    866.69346   -25257.554   -26153.674    297.19002    292.14143    235.76421    363.66443     41.18259     41.18259     82.36518 
   44200    880.83107   -25257.495   -26168.232   -194.71989    38.067894   -187.59292   -434.63464    41.184221    41.184221    82.368442 
   44300    863.62952   -25257.467   -26150.418    157.63252   -622.65773    908.25686    187.29842    41.185376    41.185376    82.370752 
   44400    876.57615   -25257.378   -26163.716   -193.62085   -447.39222    140.65062   -274.12095    41.186325    41.186325    82.372649 
   44500    868.51856   -25257.331   -26155.338    53.214759     96.28612    -250.7941    314.15226    41.185951    41.185951    82.371902 
   44600    874.43735   -25257.281   -26161.407   -74.081787   -856.99359     358.8393    275.90893    41.185012    41.185012    82.370024 
   44700    874.90123    -25257.22   -26161.826    154.63578   -224.42761    540.33641    147.99854    41.184038    41.184038    82.368077 
   44800    881.08092   -25257.188   -26168.184   -57.997337   -541.65571   -220.29142    587.95511    41.183383    41.183383    82.366766 
   44900    864.56318   -25257.129   -26151.046    285.18498   -41.277829    418.81662    478.01616    41.183343    41.183343    82.366685 
   45000    877.20442   -25257.112   -26164.099    13.561354   -269.49742    129.95923    180.22225    41.183372    41.183372    82.366744 
   45100    875.72585   -25257.082    -26162.54    62.400714    172.81983    132.72433   -118.34203    41.184006    41.184006    82.368012 
   45200    871.09469   -25257.088   -26157.758    145.58004   -39.073216    -140.5683    616.38165     41.18472     41.18472    82.369439 
   45300    873.43905   -25257.053   -26160.147    77.774083   -129.17773    257.91806    104.58192     41.18583     41.18583     82.37166 
   45400      877.669   -25257.054   -26164.522   -155.03364   -258.15942   -181.65268    -25.28882    41.186436    41.186436    82.372872 
   45500    875.85865   -25257.084   -26162.679   -70.502123   -801.95029    617.91609    -27.47217    41.186169    41.186169    82.372339 
   45600     878.8772   -25257.073    -26165.79    -203.8763   -138.11173    -316.9181   -156.59908    41.185587    41.185587    82.371175 
   45700    882.27915   -25257.085   -26169.319   -194.38068     170.8742    110.77768   -864.79391    41.184431    41.184431    82.368863 
   45800    870.78741    -25257.06   -26157.412    250.95204    668.09382    227.99968   -143.23737    41.183597    41.183597    82.367194 
   45900    877.96761   -25257.028   -26164.804   -59.502085   -66.231581       243.69   -355.96467    41.183257    41.183257    82.366515 
   46000     874.1894   -25257.035   -26160.904    35.522955    -72.07613     181.3139    -2.668907    41.182845    41.182845    82.365691 
   46100     875.4505   -25257.013   -26162.187    2.2237098    70.170524   -343.06939    279.56999    41.182967    41.182967    82.365934 
   46200    874.86209   -25257.016   -26161.581    25.301423    -562.3408   -305.74843    943.99349    41.183209    41.183209    82.366418 
   46300    870.83096    -25257.04   -26157.437    220.97888    195.59988    547.63217   -80.295417    41.183635    41.183635     82.36727 
   46400    876.03187   -25257.087   -26162.862   -74.644222   -81.948722    351.73985   -493.72379     41.18444     41.18444     82.36888 
   46500     872.5263   -25257.109    -26159.26   -12.535535   -608.50771      159.711    411.19011    41.185327    41.185327    82.370654 
   46600    868.94242    -25257.14   -26155.584    81.711608    378.37446    45.643824   -178.88346    41.185766    41.185766    82.371532 
   46700    885.40595   -25257.116   -26172.584   -342.40638   -168.07546   -296.08421   -563.05947    41.186013    41.186013    82.372026 
   46800     877.2933   -25257.152   -26164.231    -79.13029    300.81443   -374.14548   -164.05982    41.185399    41.185399    82.370799 
   46900    880.91295   -25257.186   -26168.008   -187.42601   -36.229573    9.9065114   -535.95498    41.184655    41.184655     82.36931 
   47000     866.3406   -25257.214   -26152.968     262.3529    385.65169   -164.07748     565.4845    41.183703    41.183703    82.367405 
   47100    877.73379   -25257.253   -26164.787   -11.271986    265.12896   -158.49153   -140.45339    41.183021    41.183021    82.366043 
   47200    877.29351    -25257.29   -26164.369    100.88626    451.76022   -262.20561    113.10416    41.182811    41.182811    82.365622 
   47300    873.43389   -25257.312     -26160.4    166.38351    5.9240754   -242.16316    735.38961    41.183381    41.183381    82.366762 
   47400    879.68778   -25257.371   -26166.926   -68.003566    272.65413    -304.7986   -171.86622    41.184192    41.184192    82.368384 
   47500    873.94862   -25257.402   -26161.023    71.238922    493.24502    215.93399   -495.46224    41.185204    41.185204    82.370408 
   47600    874.99725   -25257.407   -26162.112   -124.55123    55.827513   -12.898675   -416.58252    41.186353    41.186353    82.372706 
   47700    870.87442   -25257.425   -26157.867   -45.374182   -221.37447     171.2261   -85.974168    41.186903    41.186903    82.373805 
   47800     878.4386   -25257.423   -26165.686   -296.32354   -217.96764    -428.4208   -242.58218    41.186899    41.186899    82.373798 
   47900    868.35418   -25257.433   -26155.269    89.560219    161.96576    76.317558    30.397342    41.185799    41.185799    82.371598 
   48000    884.18599   -25257.447   -26171.653   -228.43254   -180.87491   -195.10118   -309.32152    41.184233    41.184233    82.368467 
   48100    862.92937   -25257.502   -26149.729    431.52277    439.18888     287.0717    568.30773    41.182241    41.182241    82.364481 
   48200    873.90681   -25257.555   -26161.133    214.50921   -32.532834    208.81208    467.24839    41.181022    41.181022    82.362044 
   48300    879.46149   -25257.615   -26166.936    21.852752    340.41667   -233.44129   -41.417125    41.180737    41.180737    82.361474 
   48400    866.44987   -25257.703    -26153.57    319.27467    562.50818    146.85253     248.4633    41.181063    41.181063    82.362126 
   48500    862.33045   -25257.773   -26149.381    430.99869    272.69429    127.70557    892.59621    41.182276    41.182276    82.364553 
   48600    869.03687   -25257.814   -26156.356    248.12496     515.8052   -107.07557    335.64524    41.183972    41.183972    82.367945 
   48700    884.87102   -25257.823   -26172.737   -309.58836   -591.85425    193.62022   -530.53105    41.185845    41.185845     82.37169 
   48800    874.71175   -25257.902   -26162.312   -165.27592   -84.859811   -234.43949   -176.52846     41.18667     41.18667    82.373341 
   48900    873.93041   -25257.947   -26161.549   -91.023035    189.60726    86.114177   -548.79054    41.186729    41.186729    82.373457 
   49000    876.75952   -25257.927   -26164.454   -174.70952    82.684907   -649.94487    43.131396    41.186317    41.186317    82.372634 
   49100    871.82217   -25257.933   -26159.356    116.73072   -4.1645687    33.499704    320.85703     41.18511     41.18511     82.37022 
   49200    883.97528   -25257.942    -26171.93   -216.46456   -70.146877   -701.05551    121.80871    41.183835    41.183835     82.36767 
   49300     872.3745   -25257.966    -26159.96    139.87685    383.22609    75.543895   -39.139429    41.182551    41.182551    82.365103 
   49400    872.86119   -25257.966   -26160.462    162.10009    386.14274    185.60957   -85.452044    41.181983    41.181983    82.363967 
   49500    876.73702   -25257.961   -26164.465   -29.259531    -338.6765    51.396937    199.50097    41.182283    41.182283    82.364566 
   49600    883.75485   -25257.956   -26171.716   -149.30987   -18.033035    160.86242     -590.759    41.182852    41.182852    82.365704 
   49700    868.64039   -25257.979   -26156.112    211.29888   -35.654323    500.93763    168.61333    41.183621    41.183621    82.367242 
   49800     880.5736   -25258.004   -26168.475   -148.54597    153.22224   -198.25654    -400.6036    41.184648    41.184648    82.369297 
   49900    876.47771   -25258.017   -26164.253   -87.901213   -349.24401    132.05857   -46.518202    41.185427    41.185427    82.370854 
   50000    876.43628   -25258.011   -26164.204   -160.06129    167.04912   -314.10625   -333.12674    41.185921    41.185921    82.371842 
Loop time of 1483.7 on 1 procs for 50000 steps with 8000 atoms

Pair  time (%) = 1342.57 (90.4883)
Neigh time (%) = 100.07 (6.74463)
Comm  time (%) = 8.62035 (0.581005)
Outpt time (%) = 0.62823 (0.0423422)
Other time (%) = 31.8064 (2.14373)

Nlocal:    8000 ave 8000 max 8000 min
Histogram: 1 0 0 0 0 0 0 0 0 0
Nghost:    9112 ave 9112 max 9112 min
Histogram: 1 0 0 0 0 0 0 0 0 0
Neighs:    298099 ave 298099 max 298099 min
Histogram: 1 0 0 0 0 0 0 0 0 0

Total # of neighbors = 298099
Ave neighs/atom = 37.2624
Neighbor list builds = 5000
Dangerous builds = 0
unfix		1

# Melt half the system
region  liquid block INF INF INF INF INF ${nzhalf}
region  liquid block INF INF INF INF INF 10
group	liquid_group region liquid
3951 atoms in group liquid_group

# Heat up one side to Tmelt to make sure it is melted
fix 2 liquid_group npt temp ${Tmelt} ${Tmelt} 1 z 0 0 10 drag 1.0
fix 2 liquid_group npt temp 2000 ${Tmelt} 1 z 0 0 10 drag 1.0
fix 2 liquid_group npt temp 2000 2000 1 z 0 0 10 drag 1.0
run		${eqsteps}
run		50000
Memory usage per processor = 5.95825 Mbytes
Step Temp TotEng PotEng Press Pxx Pyy Pzz Lx Ly Lz 
   50000    876.43628   -25258.011   -26164.204   -160.06129    167.04912   -314.10625   -333.12674    41.185921    41.185921    82.371842 
   50100    877.31312   -25255.672   -26162.772   -129.03685    -47.47768   -637.92951    298.29664    41.185921    41.185921    82.371795 
   50200    881.02002   -25250.276   -26161.208    47.823419    348.01343   -355.16976    150.62659    41.185921    41.185921     82.37181 
   50300    887.52553   -25245.117   -26162.775    52.616591   -14.423506   -165.96054    338.23381    41.185921    41.185921    82.371913 
   50400    880.59033   -25240.013   -26150.501    376.06034    859.40377   -78.265304    347.04254    41.185921    41.185921    82.372233 
   50500    880.03505   -25234.282   -26144.195    592.46463    802.48881    265.68134    709.22373    41.185921    41.185921     82.37277 
   50600    889.75152   -25228.232   -26148.192    528.97735    673.88644    286.35894    626.68669    41.185921    41.185921    82.373526 
   50700    892.26039   -25222.034   -26144.588    723.21347    830.36329    692.15734    647.11977    41.185921    41.185921    82.374527 
   50800    896.61332   -25215.701   -26142.756    739.47617    1044.9074    450.70415    722.81694    41.185921    41.185921    82.375828 
   50900    899.69829   -25209.281   -26139.526    833.79989    1454.5932    456.05004    590.75643    41.185921    41.185921    82.377474 
   51000     905.9248   -25202.797    -26139.48    879.87524    1181.5561    560.06656    898.00303    41.185921    41.185921    82.379463 
   51100    892.48489   -25196.183    -26118.97     1431.124    1949.2448    1113.8884    1230.2388    41.185921    41.185921    82.381963 
   51200    907.12347   -25189.619   -26127.541    1257.9261    1329.2171    1114.6391     1329.922    41.185921    41.185921    82.385059 
   51300     912.5227   -25182.975    -26126.48    1249.5536    1766.8658    958.66519    1023.1298    41.185921    41.185921    82.388761 
   51400    915.69406   -25176.262   -26123.046    1364.2062    1793.2362    898.26738    1401.1149    41.185921    41.185921     82.39299 
   51500    911.20416   -25169.518   -26111.659    1664.7204    1986.6467    1719.3795    1288.1349    41.185921    41.185921    82.397892 
   51600    920.70165   -25162.737   -26114.698    1577.1926    1608.2207    1160.5087    1962.8484    41.185921    41.185921    82.403436 
   51700    926.49408   -25155.887   -26113.837    1563.8695     1648.424    1491.9359    1551.2485    41.185921    41.185921    82.409709 
   51800    924.60256   -25149.004   -26104.998    1736.5234    2481.7541    1421.1279    1306.6882    41.185921    41.185921    82.416631 
   51900    930.12564   -25142.117   -26103.822    1892.4742    1974.5549    1711.9455    1990.9221    41.185921    41.185921    82.424186 
   52000    925.32865   -25135.183   -26091.928    2098.0885    2273.8259    1943.9619    2076.4778    41.185921    41.185921    82.432558 
   52100    933.94109   -25128.239    -26093.89    2000.4597    2601.3748    1960.7903    1439.2141    41.185921    41.185921     82.44173 
   52200    939.20894   -25121.225   -26092.322    1910.7606    1872.3062    1676.6173    2183.3583    41.185921    41.185921    82.451618 
   52300    949.03815   -25114.179   -26095.438    1940.7523    2577.0009    1537.2176    1708.0384    41.185921    41.185921    82.462384 
   52400    945.81453   -25107.135   -26085.061    2095.0235    2653.7712    1520.7294    2110.5697    41.185921    41.185921    82.473995 
   52500    945.96128   -25100.074   -26078.152    2245.7463    2355.8217    1730.8555    2650.5615    41.185921    41.185921    82.486506 
   52600    955.57147   -25092.923   -26080.938    2155.4043    2410.7208    2118.3128    1937.1792    41.185921    41.185921    82.499974 
   52700      945.667   -25085.794   -26063.568    2470.7077    2553.1189     1913.571    2945.4332    41.185921    41.185921    82.514302 
   52800    960.38622   -25078.619   -26071.613    2165.0947    2530.2932    1995.4591    1969.5318    41.185921    41.185921     82.52968 
   52900     955.6866   -25071.423   -26059.557    2470.3714       2698.2     2396.101    2316.8133    41.185921    41.185921    82.545918 
   53000    963.13766   -25064.141   -26059.979    2268.0232     2627.253    1721.0977    2455.7188    41.185921    41.185921     82.56306 
   53100    969.74964   -25056.878   -26059.552     2327.525    2578.5973    2305.9423    2098.0355    41.185921    41.185921    82.581119 
   53200    969.02504   -25049.617   -26051.542    2319.5977    2431.9829    2696.9127    1829.8974    41.185921    41.185921    82.599921 
   53300    977.21169   -25042.231    -26052.62    2270.0968     2615.201    2223.5358    1971.5537    41.185921    41.185921    82.619332 
   53400    975.38204   -25034.844   -26043.342    2345.3068    2496.5459    2246.2042    2293.1704    41.185921    41.185921    82.639346 
   53500    980.16338   -25027.454   -26040.896    2221.1012    2770.3631    2050.9172    1842.0232    41.185921    41.185921    82.660019 
   53600    982.91089    -25020.02   -26036.303    2273.2247    2407.6072    2370.4158    2041.6511    41.185921    41.185921     82.68122 
   53700    978.01912   -25012.585    -26023.81    2494.7295    2819.0666    2411.7573    2253.3646    41.185921    41.185921    82.702987 
   53800    985.25694   -25005.133   -26023.841    2373.3583    3062.0283    1886.6567      2171.39    41.185921    41.185921    82.725457 
   53900    994.57687    -24997.61   -26025.955    2187.9776     2395.956    1994.3505    2173.6264    41.185921    41.185921    82.748555 
   54000    988.92398    -24990.06   -26012.559    2373.4336     3372.894    2155.7936    1591.6133    41.185921    41.185921    82.772164 
   54100    999.20548    -24982.52   -26015.651    2095.0802    2464.9467    2273.1586    1547.1353    41.185921    41.185921    82.796088 
   54200    1013.1856   -24974.901   -26022.486    1801.9208    2479.6114    1758.6014    1167.5494    41.185921    41.185921    82.820376 
   54300    998.23499    -24967.28   -25999.407    2194.5098    2655.3725    2451.9852    1476.1718    41.185921    41.185921    82.844892 
   54400    1008.0738   -24959.605   -26001.905    2082.5511    2756.2941    1871.3166    1620.0427    41.185921    41.185921     82.86964 
   54500    1013.6491   -24951.898   -25999.962      1931.68    2544.7432    1909.9543    1340.3424    41.185921    41.185921    82.894597 
   54600    1019.3717   -24944.189   -25998.171    1883.5295    2076.4192    2158.6622    1415.5073    41.185921    41.185921    82.919694 
   54700    1013.7333   -24936.444   -25984.595    1979.6138    2619.1246    1857.4737     1462.243    41.185921    41.185921    82.944911 
[...]
  336300    881.25297   -25239.814   -26150.988    122.80749   -258.42745   -71.251327    698.10123    41.204874    41.204874     82.33169 
  336400    883.12534   -25239.819   -26152.928   -62.056962   -100.58267   -197.15999    111.57178    41.204257    41.204257    82.351548 
  336500    884.91758   -25239.822   -26154.784   -293.58205   -464.68849    201.75328   -617.81093     41.20363     41.20363    82.371241 
  336600    881.14396   -25239.823   -26150.884    -88.33742   -83.505311   -59.219651    -122.2873    41.203031    41.203031    82.354413 
  336700    888.89528   -25239.827   -26158.902    26.170991    98.355121   -48.302989    28.460841    41.202477    41.202477    82.319329 
  336800     880.9647    -25239.82   -26150.695    381.42008    999.11974   -248.68189    393.82239    41.202096    41.202096    82.302663 
  336900    878.83717   -25239.831   -26148.506    274.16698    244.71981    242.84264    334.93849    41.201879    41.201879    82.331841 
  337000    883.43279   -25239.834   -26153.261    -385.5938   -590.49685   -447.32834   -118.95622    41.201714    41.201714    82.380177 
  337100    873.65912   -25239.822   -26143.143   -266.17236   -548.21336    104.40056   -354.70429    41.201386    41.201386    82.407315 
  337200    871.59475   -25239.832   -26141.019     71.65468   -86.068515     -193.798    494.83056     41.20086     41.20086    82.377171 
  337300    878.48038    -25239.83   -26148.136    174.41505    46.619297   -105.38853    582.01437    41.200343    41.200343    82.344399 
  337400    887.91508    -25239.83   -26157.891   -50.254167    69.991932   -183.73743   -37.017002    41.199884    41.199884    82.338843 
  337500    881.48292   -25239.831   -26151.242    147.54255    480.75488   -512.07188    473.94464    41.199551    41.199551    82.348287 
  337600     887.7052   -25239.837   -26157.681   -253.02941   -233.60564   -75.940868   -449.54171    41.199283    41.199283    82.377441 
  337700    877.18883   -25239.831   -26146.802    8.8235707    103.91146    -109.6541    32.213351    41.198993    41.198993    82.380373 
  337800    876.83779    -25239.83   -26146.439   -169.41167   -385.29446   -637.64196    514.70143    41.198659    41.198659    82.374638 
  337900    888.45447   -25239.836   -26158.455   -234.44501   -102.08288   -601.87967   0.62751926    41.198201    41.198201    82.374279 
  338000    877.43709   -25239.833   -26147.061    -204.2789   -227.87872   -335.16621   -49.791783     41.19768     41.19768    82.385098 
  338100    872.74714   -25239.828   -26142.206   -49.816769   -245.50008   -3.0135103    99.063288    41.197071    41.197071    82.390869 
  338200    876.69834   -25239.836     -26146.3   -14.996818    130.19829   -170.48027   -4.7084711    41.196376    41.196376    82.378291 
  338300    869.01563   -25239.828   -26138.349     326.1766    230.09586    422.16568    326.26825    41.195696    41.195696    82.362558 
  338400      878.225   -25239.835   -26147.877    169.43397    9.3250511    567.06781   -68.090944    41.195115    41.195115    82.355732 
  338500    876.21258   -25239.833   -26145.795    344.57344    317.91277    141.34256      574.465    41.194707    41.194707      82.3493 
  338600    877.57798   -25239.842   -26147.216    158.71701   -44.432294    546.85888   -26.275559    41.194441    41.194441    82.373588 
  338700    882.64908   -25239.837   -26152.454   -110.08897  -0.92971191    179.41539    -508.7526    41.194271    41.194271    82.395666 
  338800    885.18103   -25239.841   -26155.075   -89.997931   -225.96624   -40.554518   -3.4730289    41.194084    41.194084    82.383838 
  338900    884.17302   -25239.842   -26154.034    30.154679     183.3922    41.706786   -134.63495    41.193916    41.193916    82.369281 
  339000    874.52806   -25239.839   -26144.059    506.59112    704.25817    352.47427    463.04092    41.193845    41.193845     82.34456 
  339100     881.6819   -25239.845   -26151.461    306.76769    232.22965    524.73122     163.3422    41.193976    41.193976    82.352503 
  339200    881.96405   -25239.846   -26151.754   -9.6177138   -338.42178    289.48573    20.082915    41.194271    41.194271    82.380528 
  339300      877.039   -25239.841   -26146.657   -168.70447   -246.77792    50.990818   -310.32632    41.194512    41.194512    82.407079 
  339400    881.59961   -25239.848   -26151.379   -350.03479   -155.67511   -143.93855    -750.4907    41.194633    41.194633    82.411813 
  339500     873.6973   -25239.843   -26143.204    56.173122    50.362491   -146.12467    264.28155     41.19465     41.19465    82.385977 
  339600    881.12385   -25239.844   -26150.884      28.3915   -233.31824     51.71263    266.78011    41.194617    41.194617    82.374801 
  339700    878.54567   -25239.845   -26148.218    235.80754    476.97004   -129.65326    360.10584    41.194561    41.194561    82.366799 
  339800    874.18466   -25239.851   -26143.716    248.67656    63.773917    144.90187    537.35388    41.194489    41.194489    82.378935 
  339900    890.29259    -25239.85    -26160.37   -487.14127   -302.73853   -700.09409   -458.59121     41.19444     41.19444    82.423197 
  340000    883.52754   -25239.853   -26153.378   -487.33629   -39.587314   -509.79127   -912.63028    41.194261    41.194261     82.42506 
  340100     878.7803   -25239.862   -26148.478    182.24022   -83.717171     355.4309    275.00694    41.194019    41.194019    82.366275 
  340200    884.27615   -25239.851    -26154.15    322.15794    373.86498    438.97779    153.63107     41.19386     41.19386    82.333724 
  340300    875.67523    -25239.86   -26145.266    466.04314    436.59644     442.8101    518.72286    41.193885    41.193885    82.338302 
  340400    878.44794   -25239.866   -26148.139    25.658948    278.54924   -353.55213    151.97974    41.194114    41.194114    82.388163 
  340500    882.84843   -25239.859   -26152.681   -379.16972    164.42358   -640.74371   -661.18903    41.194266    41.194266    82.430892 
  340600    884.04118   -25239.866   -26153.922   -375.13622    47.291237   -610.81575   -561.88415    41.194252    41.194252    82.414823 
  340700    883.33941   -25239.868   -26153.198   -146.29488    87.026926    -386.1134   -139.79817    41.194089    41.194089    82.378333 
  340800    878.82469   -25239.859   -26148.521    156.08993    411.55043   -106.48808    163.20746    41.193934    41.193934    82.360534 
  340900    875.95145   -25239.859   -26145.551    347.11406    813.40374     129.5649    98.373535    41.193918    41.193918    82.356182 
  341000    889.25237   -25239.864   -26159.308   -63.441565    130.17612   -324.32232     3.821507    41.194045    41.194045    82.355428 
  341100    874.98001   -25239.866   -26144.553      248.662    256.27491     16.69442    473.01666    41.194208    41.194208    82.372667 
  341200    877.33897   -25239.868   -26146.995   -213.46184   -339.01112   -309.53432    8.1599221    41.194367    41.194367    82.411086 
  341300    880.68611   -25239.863    -26150.45   -415.24485   -298.03121   -795.14068   -152.56267    41.194342    41.194342    82.436118 
  341400    890.73858   -25239.876   -26160.857   -624.33458   -344.99366   -694.00789   -834.00219    41.194037    41.194037    82.430992 
  341500    873.25679   -25239.878   -26142.784    264.65873    505.31718    23.386027    265.27297      41.1936      41.1936    82.381485 
  341600    875.05805    -25239.87   -26144.638    510.02628    812.84468    566.50038    150.73378    41.193199    41.193199    82.345743 
  341700    877.21945   -25239.872   -26146.875     538.8238    154.71489     874.6135      587.143    41.193004    41.193004      82.3477 
  341800    892.26154   -25239.886   -26162.441    -284.4584   -180.10384   -319.61241   -353.65896     41.19301     41.19301    82.384357 
  341900    879.02568   -25239.874   -26148.744   -180.37954    147.31285    116.24365   -804.69513    41.193047    41.193047    82.410494 
  342000    888.47715   -25239.879   -26158.521   -266.73969   -211.42488   -284.55413   -304.24005    41.193075    41.193075    82.391743 
  342100    883.47258   -25239.883   -26153.351    140.77107    527.65691    110.39469   -215.73839    41.193067    41.193067    82.352318 
  342200    887.39617   -25239.884   -26157.409    400.64186    601.61213     335.0463    265.26715    41.193266    41.193266    82.320634 
  342300     884.9679   -25239.887   -26154.901    283.37258    279.96197    188.78277      381.373    41.193733    41.193733    82.341083 
  342400    869.87793   -25239.886   -26139.298     170.1587   -188.01089    284.72942    413.75758    41.194295    41.194295    82.391298 
  342500    881.67245   -25239.887   -26151.494   -478.23298   -349.04143   -667.51037   -418.14715    41.194749    41.194749    82.435336 
  342600    877.95566   -25239.885   -26147.649   -299.44897   -388.07289    -236.6122   -273.66181    41.194918    41.194918    82.435041 
  342700    888.80374   -25239.905   -26158.886   -266.83165   -172.19617   -208.72089    -419.5779    41.194889    41.194889    82.392005 
  342800    875.30237   -25239.893   -26144.914    550.90096    607.38215    214.42111    830.89961    41.194845    41.194845    82.334824 
  342900    878.65595   -25239.897   -26148.385    436.53136    491.56976    365.50058    452.52375    41.194963    41.194963    82.333491 
  343000    892.05623   -25239.903   -26162.246   -204.73231   -347.03051    162.62946   -429.79588    41.195275    41.195275    82.364659 
  343100    878.22356   -25239.902   -26147.943    -1.282971    209.92078    187.15301   -400.92269     41.19562     41.19562     82.38952 
  343200    884.75619   -25239.906   -26154.701   -162.20837   -119.15729    169.19464   -536.66247    41.195978    41.195978    82.384072 
  343300    887.28741    -25239.91   -26157.322    142.39599    369.60536    23.951532    33.631059    41.196303    41.196303    82.334197 
  343400    874.80524   -25239.903    -26144.41    743.08782    816.86477    449.34404    963.05465    41.196773    41.196773    82.299205 
  343500    887.07073   -25239.917   -26157.105    46.893252    33.143489    73.372822    34.163445    41.197499    41.197499    82.324703 
  343600    878.08068    -25239.92   -26147.813   -66.228582    333.42709   -456.03404   -76.078793    41.198208    41.198208    82.376805 
  343700    880.10812   -25239.918   -26149.908   -514.01825   -348.58813   -935.46753   -257.99907    41.198671    41.198671    82.428962 
  343800    889.16905   -25239.924   -26159.282    -819.8899   -430.47816   -1238.2376   -790.95392    41.198754    41.198754    82.438149 
  343900    877.64498   -25239.929   -26147.372   -112.44667   -60.159504   -29.635505     -247.545    41.198503    41.198503    82.380303 
  344000    880.12803    -25239.94    -26149.95    290.37081    515.91298   -22.995345    378.19479    41.198197    41.198197    82.312163 
  344100    880.03028   -25239.924   -26149.833    770.13564    909.55471    880.40237    520.44984    41.198168    41.198168    82.281848 
  344200    888.02426   -25239.965   -26158.139    317.21649   -56.536752    408.97547    599.21076    41.198492    41.198492    82.318564 
  344300    871.36679   -25239.953   -26140.904   -70.338568    186.62994    -203.4973   -194.14834    41.198916    41.198916    82.402822 
  344400    883.36205   -25239.942   -26153.296   -595.45414   -391.86182    -890.5556     -503.945    41.199208    41.199208    82.432494 
  344500    886.78314   -25239.956   -26156.848   -504.66775    -688.7566   -322.25239   -502.99427    41.199154    41.199154    82.404748 
  344600    884.60431   -25239.966   -26154.604    -29.18822    593.89929   -430.74777   -250.71618    41.198852    41.198852     82.35525 
  344700    878.15442   -25239.949   -26147.918    439.50476    557.88274    360.91368    399.71786    41.198644    41.198644    82.306948 
  344800    877.36746   -25239.949   -26147.105    504.06681    845.89319    312.45564    353.85159    41.198706    41.198706    82.300016 
  344900    877.06534   -25239.962   -26146.805     372.4696    248.07491    440.68391    428.64996    41.199029    41.199029     82.32367 
  345000     871.4854   -25239.958   -26141.032    47.322327   -198.01548    257.79573    82.186731     41.19944     41.19944    82.364669 
  345100    892.22647   -25239.962   -26162.481   -672.22245   -548.41852   -761.60001   -706.64882    41.199728    41.199728    82.401582 
  345200    886.33996   -25239.959   -26156.391    -536.5114   -64.729021   -802.16186   -742.64331    41.199762    41.199762    82.403516 
  345300     879.8433   -25239.971   -26149.686   -7.8428328   -180.10219    181.99336   -25.419671    41.199604    41.199604    82.361616 
  345400    883.12081   -25239.965   -26153.069    264.71374    266.88319    382.03115    145.22689    41.199405    41.199405    82.321141 
  345500    886.02041   -25239.969   -26156.072    219.47905    172.64673    282.51912    203.27129    41.199379    41.199379    82.312273 
  345600    881.33218   -25239.964   -26151.219    97.051005    171.98504    3.9010096    115.26697    41.199562    41.199562    82.339745 
  345700    885.99898   -25239.967   -26156.048   -154.03384   -234.46161    38.434901    -266.0748     41.19981     41.19981    82.367717 
  345800     887.0479   -25239.967   -26157.132   -249.13437    28.676315   -349.66696   -426.41247    41.199984    41.199984    82.364757 
  345900    882.91829   -25239.987   -26152.882    295.37539    939.00096   -127.19085    74.316057    41.200149    41.200149    82.313461 
  346000    876.47722    -25239.98   -26146.216    838.22527     1045.054    1130.1978    339.42401    41.200578    41.200578    82.257749 
  346100    877.82514   -25239.974   -26147.603     996.3995    1027.5282    939.05031      1022.62    41.201473    41.201473    82.235379 
  346200    881.87889   -25239.993   -26151.813    489.36025    468.59312    784.77336    214.71427    41.202715    41.202715    82.281605 
  346300    872.09783    -25240.01   -26141.717    150.02661    406.93968    151.51541   -108.37527    41.204069    41.204069    82.351277 
  346400    882.76089   -25239.998    -26152.73    -548.9376   -130.97562   -680.11868    -835.7185    41.205212    41.205212    82.397104 
  346500    877.66067   -25239.997   -26147.456   -307.32983   -141.38189   -919.74335    139.13575    41.205985    41.205985    82.378586 
  346600    880.28662   -25240.008   -26150.182   -141.22432    7.8593187   -240.35361   -191.17867    41.206421    41.206421     82.34367 
  346700    881.29129   -25239.999   -26151.212    191.46088    434.19822    78.230894    61.953511    41.206714    41.206714    82.307202 
  346800    875.21091   -25239.996   -26144.922    503.77275    563.46881    317.79369    630.05574    41.207041    41.207041    82.287512 
  346900    887.71386    -25240.01   -26157.863   -38.175339    96.043997    2.5615217   -213.13153    41.207474    41.207474    82.318046 
  347000    878.22534   -25240.013   -26148.056   -171.97922   -32.319345   -508.07364    24.455339    41.207861    41.207861    82.367185 
  347100    883.62969   -25240.005   -26153.636   -538.79098   -393.02147   -345.75225   -877.59923    41.208016    41.208016     82.39474 
  347200    884.00568   -25240.007   -26154.026   -510.63265   -292.24736   -889.52754   -350.12305    41.207878    41.207878    82.379988 
  347300    885.59493   -25240.009   -26155.671     -379.202     -499.172     -1001.26    362.82599    41.207512    41.207512    82.359078 
  347400    882.77132   -25240.015   -26152.758   -464.58469   -323.54397   -626.11503   -444.09508    41.206896    41.206896    82.380371 
  347500    878.87963   -25240.013   -26148.733    -416.8074   -122.88847   -1018.6099   -108.92386    41.206091    41.206091     82.38871 
  347600     869.6034   -25240.014   -26139.142    -49.85606   -300.26605    403.89251   -253.19464    41.205106    41.205106    82.372874 
  347700    887.42356   -25240.021   -26157.575   -223.46556   0.55373138   -353.96255   -316.98786    41.204096    41.204096    82.341027 
  347800    885.07771   -25240.015   -26155.143    215.15817    193.39182    164.18421    287.89847    41.203218    41.203218    82.315709 
  347900    884.94929   -25240.017   -26155.012    268.17588    478.01311   -76.891174    403.40572    41.202589    41.202589    82.308976 
  348000    880.48493   -25240.013   -26150.392    225.40849    582.68948    546.02495   -452.48897    41.202248    41.202248    82.329648 
  348100    892.34942   -25240.021   -26162.667   -232.18704   -558.99858   -82.883858    -54.67868    41.202116    41.202116    82.332538 
  348200    870.69049   -25240.019   -26140.271    230.46002    433.67571   -80.838284    338.54263    41.202032    41.202032    82.358076 
  348300    884.03554   -25240.027   -26154.077   -176.22101   -94.248345   -158.51149   -275.90321    41.202025    41.202025    82.356814 
  348400    883.76881   -25240.029   -26153.803    259.53132    287.51609    507.10043    -16.02255    41.202052    41.202052    82.317005 
  348500    879.22775   -25240.021     -26149.1    378.78087    977.80254   -80.968785    239.50887    41.202247    41.202247    82.295689 
  348600    877.48115   -25240.021   -26147.294    405.61137    568.76929    66.094274    581.97054    41.202633    41.202633    82.302565 
  348700    878.63347    -25240.02   -26148.485    203.87168     361.8896   -138.20573    387.93117    41.203129    41.203129    82.331902 
  348800    881.38502   -25240.025   -26151.335   -230.61798    249.00624   -348.47053   -592.38965    41.203573    41.203573    82.365303 
  348900    894.96671   -25240.027    -26165.38   -518.62327   -90.228678   -899.20314   -566.43798    41.203929    41.203929    82.360759 
  349000    874.78703   -25240.032    -26144.52    210.93626     365.5819    259.61389    7.6129847    41.204171    41.204171    82.323486 
  349100    884.97372   -25240.031   -26155.051    189.33732   -229.47411    192.28364    605.20241    41.204517    41.204517    82.286511 
  349200    876.24341   -25240.025   -26146.019    542.28848    739.96425    345.12043    541.78075     41.20496     41.20496    82.287771 
  349300    884.34661   -25240.039   -26154.411    49.472402    194.69996    148.84219   -195.12495    41.205525    41.205525    82.318605 
  349400    878.45726    -25240.03   -26148.312   -28.444169    182.23096   -238.49161    -29.07186    41.206116    41.206116    82.344022 
  349500    878.60469   -25240.028   -26148.463   -69.958079   -374.11247    222.80822   -58.569984    41.206617    41.206617    82.347384 
  349600    882.36013   -25240.037   -26152.355   -67.051059    87.257052    -28.93908   -259.47115    41.207014    41.207014    82.325744 
  349700    881.38849   -25240.033   -26151.346    299.92655    714.59105    33.145689    152.04291    41.207392    41.207392    82.293373 
  349800    875.77753   -25240.035   -26145.547    413.66862    148.20117    395.47323    697.33147    41.207803    41.207803     82.29209 
  349900    878.65418   -25240.055   -26148.541   -184.79412   -28.892558   -398.31558   -127.17421    41.208179    41.208179    82.343418 
  350000    875.00397   -25240.042   -26144.754   -469.74994    -850.1795   -330.58332     -228.487    41.208362    41.208362    82.396507 
Loop time of 5864.09 on 1 procs for 200000 steps with 8000 atoms

Pair  time (%) = 5314.38 (90.6258)
Neigh time (%) = 395.26 (6.74034)
Comm  time (%) = 31.7512 (0.541451)
Outpt time (%) = 2.49074 (0.0424745)
Other time (%) = 120.21 (2.04994)

Nlocal:    8000 ave 8000 max 8000 min
Histogram: 1 0 0 0 0 0 0 0 0 0
Nghost:    8012 ave 8012 max 8012 min
Histogram: 1 0 0 0 0 0 0 0 0 0
Neighs:    297143 ave 297143 max 297143 min
Histogram: 1 0 0 0 0 0 0 0 0 0

Total # of neighbors = 297143
Ave neighs/atom = 37.1429
Neighbor list builds = 20000
Dangerous builds = 0
unfix		4
