LAMMPS (13 Jan 2014)
dimension       3
boundary        p p p
units           metal

atom_style	atomic
neighbor	0.3 bin
neigh_modify	every 10 delay 0 check no

# Number of steps for the equilibration steps
variable        eqsteps equal 50000

# Number of steps to run our NPH simulation
variable        simsteps equal 200000

# Our trial melting temperature
variable	T equal 1000.0
variable	T2 equal 2*${T}
variable	T2 equal 2*1000

# Some high temperature to melt the crystal
variable	Tmelt equal 2000.0

#System size
variable	nx equal 10
variable	ny equal 10
variable	nz equal 20
variable	nzhalf equal ${nz}*0.5
variable	nzhalf equal 20*0.5
variable	a equal 4.050
variable	length equal ${nz}*${a}
variable	length equal 20*${a}
variable	length equal 20*4.05

lattice		fcc ${a}
lattice		fcc 4.05
Lattice spacing in x,y,z = 4.05 4.05 4.05

region         box block 0 ${nx} 0 ${ny} 0 ${nz}
region         box block 0 10 0 ${ny} 0 ${nz}
region         box block 0 10 0 10 0 ${nz}
region         box block 0 10 0 10 0 20
create_box     1 box
Created orthogonal box = (0 0 0) to (40.5 40.5 81)
  1 by 1 by 1 MPI processor grid
create_atoms   1 box
Created 8000 atoms

mass		1 26.9815

pair_style	eam/alloy
pair_coeff	* * Al_potential.alloy Al

velocity	all create ${T2} 1337
velocity	all create 2000 1337

# Create a dump file. This can be visualized with
# e.g. OVITO (http://www.ovito.org/)
dump		id all atom 1000 atomsdump

# 1 fs timestep
timestep	0.001
thermo_style	custom step temp etotal pe press pxx pyy pzz lx ly lz

# output every 100th timestep
thermo		100

# Equilibration the whole system to the trial melting temperature
fix		1 all npt temp ${T} ${T} 1 iso 0 0 3 drag 1.0
fix		1 all npt temp 1000 ${T} 1 iso 0 0 3 drag 1.0
fix		1 all npt temp 1000 1000 1 iso 0 0 3 drag 1.0
run		${eqsteps}
run		50000
Memory usage per processor = 5.95314 Mbytes
Step Temp TotEng PotEng Press Pxx Pyy Pzz Lx Ly Lz 
       0         2000   -25109.348   -27177.252    12560.983    12409.903    12394.275     12878.77         40.5         40.5           81 
     100    955.99933   -25130.606   -26119.063    32271.389    32592.276    32338.969    31882.921    40.589861    40.589861    81.179723 
     200    942.93974   -25163.644   -26138.599     20365.83    21052.101    20300.965    19744.423    40.803994    40.803994    81.607988 
     300    932.77797    -25179.46   -26143.907    11043.845    11068.428    10774.415    11288.694    40.980991    40.980991    81.961982 
     400     924.8225   -25183.325   -26139.547    4930.8966    4818.3062    5190.6594    4783.7243    41.106172    41.106172    82.212344 
     500    907.25255   -25181.722   -26119.778    780.67633    904.81131    837.71368      599.504    41.200318    41.200318    82.400636 
     600    901.78534   -25177.527   -26109.929   -1993.6586   -1667.2929   -2045.5166   -2268.1663    41.264481    41.264481    82.528963 
     700    896.12484   -25172.675   -26099.225   -3431.9687   -3544.4577   -3240.6033   -3510.8451    41.298296    41.298296    82.596591 
     800    908.70673   -25168.251    -26107.81   -3864.2395   -3668.6428   -4118.4976   -3805.5782    41.305805    41.305805     82.61161 
     900    906.37266   -25164.524   -26101.669   -3115.9765   -2754.9511    -2981.057   -3611.9212    41.292458    41.292458    82.584916 
    1000    912.13092   -25161.079   -26104.179   -1834.4575   -2152.2202    -1467.271   -1883.8813    41.266785    41.266785     82.53357 
    1100    920.05208   -25157.578   -26108.867   -536.64808    233.24614   -859.20495   -983.98542     41.23777     41.23777    82.475539 
    1200    913.01034    -25153.89   -26097.899    1009.0841    1046.0561    734.11897    1247.0772    41.212941    41.212941    82.425882 
    1300    933.78467   -25150.184   -26115.672    1344.3643    1681.8373    1178.5729    1172.6827    41.197421    41.197421    82.394842 
    1400    920.44706   -25146.652    -26098.35    1998.6307    2202.9258    1609.1398    2183.8266    41.192429    41.192429    82.384857 
    1500    919.77971   -25143.238   -26094.246    1822.9357    2553.3423    1454.2643    1461.2005    41.198355    41.198355     82.39671 
    1600    936.07881   -25139.745   -26107.605     868.5779    1460.3432    456.64924    688.74128    41.212308    41.212308    82.424615 
    1700    936.25772   -25136.262   -26104.307    154.07174    34.383217   -114.51699    542.34898    41.229303    41.229303    82.458607 
    1800    922.71534   -25132.729   -26086.772   -213.82924   -401.22042    171.28664   -411.55394    41.245108    41.245108    82.490216 
    1900    928.42197   -25129.138   -26089.082   -785.35177   -811.16593   -419.52964   -1125.3597    41.257018    41.257018    82.514036 
    2000    922.67763   -25125.521   -26079.525   -902.17433   -900.28865   -1165.0273   -641.20706     41.26308     41.26308     82.52616 
    2100    919.96954   -25122.011   -26073.215   -774.15915   -1226.5094   -892.04847   -203.91957    41.262721    41.262721    82.525442 
    2200    933.75546   -25118.508   -26083.966   -819.67327   -686.58833   -1366.8705   -405.56099    41.257917    41.257917    82.515834 
    2300    927.29785   -25115.042   -26073.824     -120.171   -537.01198    310.41159   -133.91262    41.250105    41.250105     82.50021 
    2400    947.23421   -25111.625    -26091.02   -58.551778     145.1683    68.543867    -389.3675    41.242051    41.242051    82.484103 
    2500    940.94918   -25108.284    -26081.18    509.62721    561.09579    426.56371    541.22212    41.236139    41.236139    82.472279 
    2600    943.82867   -25105.002   -26080.876    695.96228    789.60573    507.48377    790.79735    41.234039    41.234039    82.468077 
    2700    948.46459   -25101.847   -26082.514    479.62047    37.167773    812.41302    589.28062    41.235818    41.235818    82.471636 
    2800    946.12827   -25098.748   -26076.999    602.65452    611.01501    115.11398    1081.8346    41.241281    41.241281    82.482561 
    2900    947.42638   -25095.647    -26075.24    154.14043   -388.79928    892.34916   -41.128581    41.249531    41.249531    82.499062 
    3000    935.49348   -25092.586   -26059.841    147.14163    311.55701     337.6956   -207.82773    41.258206    41.258206    82.516412 
    3100    954.06558   -25089.567   -26076.025   -628.68873   -588.58884   -989.99774   -307.47961    41.265487    41.265487    82.530975 
    3200    948.05589   -25086.524   -26066.768   -609.15005   -803.31205   -737.06836   -287.06975    41.270273    41.270273    82.540545 
    3300    955.48875   -25083.457   -26071.387   -858.67186    -1177.501   -1199.9564   -198.55822    41.271876    41.271876    82.543753 
    3400    962.54455   -25080.496   -26075.721   -670.84721   -603.45182   -1115.5235   -293.56633    41.269836    41.269836    82.539673 
    3500    949.31093   -25077.571   -26059.113   -148.04664   -16.733231   -254.75997   -172.64671     41.26593     41.26593    82.531859 
    3600    948.10878    -25074.65   -26054.949    88.040775    822.78494   -391.15536   -167.50725    41.261782    41.261782    82.523565 
    3700     955.3049   -25071.774   -26059.513    265.43529    395.01897    16.572947    384.71396    41.258436    41.258436    82.516872 
    3800    958.11314   -25068.964   -26059.607    247.57394   -459.37963    862.81657    339.28489    41.257248    41.257248    82.514497 
    3900     952.4089   -25066.225    -26050.97    574.15168    624.72914    178.16086    919.56505    41.258452    41.258452    82.516903 
    4000    961.81311   -25063.524   -26057.993    317.63446    735.01112    25.526723    192.36553    41.262242    41.262242    82.524485 
    4100     954.4741   -25060.878   -26047.759    155.94053   -385.11214   -203.40765    1056.3414    41.267548    41.267548    82.535095 
    4200    955.46507   -25058.244   -26046.149   -73.354979   -136.19285   -193.28988     109.4178    41.273173    41.273173    82.546346 
    4300    956.93389   -25055.632   -26045.056   -202.80191   -284.20683   -120.37328   -203.82563    41.277952    41.277952    82.555904 
    4400    958.94137   -25053.075   -26044.574    -394.5222    436.23097   -998.49757   -621.29999    41.280843    41.280843    82.561686 
    4500    961.37948   -25050.525   -26044.545    -313.0898    62.714405   -392.50623   -609.47757    41.281589    41.281589    82.563178 
    4600    964.70841   -25048.034   -26045.496   -244.94795   -464.64233   -9.1506037   -261.05093    41.280457    41.280457    82.560915 
    4700    957.40017   -25045.534    -26035.44    99.369819   -7.7217986     288.9649    16.866361    41.278659    41.278659    82.557317 
    4800    974.43091   -25043.075    -26050.59   -164.59507   -136.58109    -302.5308   -54.673324    41.276928    41.276928    82.553855 
    4900    955.17434   -25040.701   -26028.306    417.85668    275.64079    556.29971    421.62953    41.275547    41.275547    82.551095 
    5000    968.94238   -25038.342   -26040.181    168.13739   -5.2336783    405.02391    104.62193    41.275685    41.275685    82.551369 
    5100    978.64323   -25036.028   -26047.899   -85.122904     171.4811   -464.17293    37.323127    41.277036    41.277036    82.554073 
    5200    961.03027   -25033.816   -26027.475    329.70934    651.54465    101.98525    235.59812    41.279204    41.279204    82.558408 
    5300    973.13957   -25031.521   -26037.701    -50.99535    263.79684   -286.74726   -130.03563    41.282712    41.282712    82.565425 
    5400    977.43639   -25029.305   -26039.927   -295.69254   -191.33198   -524.94049   -170.80515    41.286056    41.286056    82.572113 
    5500     967.1803   -25027.099   -26027.117   -61.674818   -40.433505   -128.95413   -15.636816    41.288796    41.288796    82.577593 
    5600    975.84842   -25024.926   -26033.906   -270.78787    40.161893   -541.39779   -311.12771    41.290836    41.290836    82.581672 
    5700     967.8484   -25022.816   -26023.524    40.658082   -404.59552   -50.771444    577.34121    41.291675    41.291675    82.583349 
    5800    969.79746   -25020.754   -26023.478   -45.456562   -648.01568    827.45613   -315.81014    41.291523    41.291523    82.583045 
    5900    979.05203   -25018.765   -26031.058   -147.95689    -330.1472    5.0501323    -118.7736    41.290488    41.290488    82.580977 
    6000    974.88836    -25016.82   -26024.808    -22.72124    47.583986   -29.307341   -86.440365    41.289261    41.289261    82.578522 
    6100    969.23135   -25014.904   -26017.043    283.47312   -234.12506    572.17878    512.36564    41.288129    41.288129    82.576258 
    6200    973.13661   -25012.948   -26019.124    228.60315    49.627435    133.54184    502.64017    41.288347    41.288347    82.576695 
    6300    972.78809   -25011.026   -26016.842    219.25435   -48.197745    449.44078    256.52003    41.289579    41.289579    82.579159 
    6400    980.13474   -25009.193   -26022.605    128.88469    58.683785    344.33534   -16.365064    41.291273    41.291273    82.582546 
    6500    985.83744    -25007.37   -26026.678   -238.30939   -408.77471   -140.94904   -165.20441    41.293841    41.293841    82.587683 
    6600    974.17402   -25005.521    -26012.77    34.039366    131.99799    111.08401    -140.9639    41.296277    41.296277    82.592553 
    6700    980.09183   -25003.732     -26017.1   -181.27897    19.933072    -546.7376   -17.032386    41.298164    41.298164    82.596328 
    6800    987.01719   -25001.946   -26022.475   -270.19826   -26.823722   -465.62065   -318.15041    41.299684    41.299684    82.599367 
    6900     975.2711   -25000.232   -26008.615    28.694215   -45.909851     -287.248    419.24049    41.300191    41.300191    82.600383 
    7000    984.00643    -24998.61   -26016.025   -183.23584    93.172791    90.683834   -733.56415    41.299854    41.299854    82.599707 
    7100    975.02378   -24997.014   -26005.142    258.57738    331.23364    626.47968   -181.98118    41.298956    41.298956    82.597913 
    7200    978.81975   -24995.485   -26007.537    225.80753    231.53172   -9.3763931    455.26726    41.298016    41.298016    82.596032 
    7300    990.78651   -24993.983   -26018.408     55.02565   -143.46472   -49.326141    357.86781    41.297833    41.297833    82.595666 
    7400    982.23194   -24992.484   -26008.064    65.162202   -7.5566738   -495.59419    698.63747    41.298541    41.298541    82.597081 
    7500    983.86558    -24991.04   -26008.309    69.030987   -320.95325    158.52919    369.51702    41.299525    41.299525     82.59905 
    7600    974.27508   -24989.655   -25997.008    400.13741    169.49535    1111.8773   -80.960415    41.300661    41.300661    82.601322 
    7700    992.58935   -24988.274   -26014.564   -194.22043   -575.06288    -872.1379    864.53948    41.302416    41.302416    82.604833 
    7800     982.2542   -24986.964   -26002.568    165.66192   -219.55648    365.72162    350.82061    41.303926    41.303926    82.607852 
    7900    994.56527   -24985.621   -26013.954    -341.2869   -452.82462   -220.79834   -350.23772    41.305948    41.305948    82.611896 
    8000     985.4478    -24984.28   -26003.186    -81.69781    29.791182    154.66051   -429.54512     41.30744     41.30744     82.61488 
    8100    987.94042   -24982.961   -26004.443   -106.72463   -533.42869    300.52363   -87.268833    41.308341    41.308341    82.616682 
    8200    981.49717   -24981.667   -25996.488     108.7377    125.54776   -166.81786    367.48319    41.308378    41.308378    82.616756 
    8300    983.91866   -24980.415   -25997.739     15.91572    27.711067   -402.41396    422.45005    41.307988    41.307988    82.615976 
    8400    995.72984    -24979.18   -26008.717   -125.23361   -133.90425    -49.86876   -191.92783    41.307494    41.307494    82.614989 
    8500    1000.2017   -24977.979   -26012.139   -103.84727   -390.40469    146.64361    -67.78072    41.307097    41.307097    82.614194 
    8600    983.13264   -24976.833   -25993.345    271.83236    256.07061    257.37168    302.05479    41.306983    41.306983    82.613966 
    8700    994.32707   -24975.692   -26003.779    42.109108   -328.84595    384.73988    70.433395    41.307439    41.307439    82.614878 
    8800    994.09839   -24974.645   -26002.495    1.5251146     84.60565   -76.952873   -3.0774336    41.307941    41.307941    82.615882 
    8900    988.70229   -24973.675   -25995.946    107.93898     430.2121   -260.21727    153.82211    41.308582    41.308582    82.617165 
    9000    996.65043   -24972.694   -26003.183   -33.592138    254.36702     261.6878   -616.83124    41.309832    41.309832    82.619664 
    9100     989.0015   -24971.758   -25994.338    162.02288   -119.25903    285.60164    319.72604    41.311206    41.311206    82.622412 
    9200    1003.0278   -24970.848   -26007.931   -397.09573   -973.75018   -30.367199   -187.16982    41.312658    41.312658    82.625316 
    9300    997.82104   -24969.968   -26001.667   -199.47832   -520.48452   -165.94987    87.999435    41.313551    41.313551    82.627101 
    9400     992.1848   -24969.141   -25995.013   -113.94483    682.93213   -292.62209   -732.14451    41.313837    41.313837    82.627673 
    9500    982.62348   -24968.287   -25984.272    204.13851   -220.64978    373.27419    459.79112    41.313711    41.313711    82.627422 
    9600    992.99771     -24967.5   -25994.212   -84.069131      58.5581     50.46834   -361.23383    41.312839    41.312839    82.625678 
    9700    994.55076   -24966.732    -25995.05    25.047374    236.98815   -64.734786   -97.111245    41.311666    41.311666    82.623332 
    9800    995.23963   -24965.971   -25995.001     98.47603    364.19109   -376.76442    308.00143    41.310804    41.310804    82.621608 
    9900    1001.2009   -24965.193   -26000.386    56.195158    250.67296    154.40176   -236.48924    41.310907    41.310907    82.621814 
   10000    991.00402   -24964.455   -25989.105    233.82586    176.36175    291.85929    233.25652    41.312033    41.312033    82.624067 
   10100    994.47633   -24963.747   -25991.988    17.487987    188.46189    199.78767    -335.7856    41.313904    41.313904    82.627807 
   10200    991.28883   -24963.084   -25988.029    50.335495    588.56466   -502.28376     64.72559    41.315704    41.315704    82.631407 
   10300    1004.1265   -24962.435   -26000.653   -375.52781   -831.42598    -197.5191   -97.638343    41.317433    41.317433    82.634866 
   10400    979.64424   -24961.846   -25974.751    266.91567    572.62647    34.570811    193.54973    41.317718    41.317718    82.635436 
   10500    995.53105   -24961.217   -25990.548   -99.321354   -364.20377    160.39221   -94.152505    41.317436    41.317436    82.634871 
   10600     1010.163   -24960.599   -26005.059   -429.81954   -377.59957   -129.21489   -782.64415     41.31644     41.31644    82.632879 
   10700     989.8423   -24960.022   -25983.471    217.77044    473.52848    364.82303   -185.04019    41.314968    41.314968    82.629936 
   10800    986.62639   -24959.409   -25979.534    348.32881      333.376    363.10076    348.50967    41.314331    41.314331    82.628663 
   10900    995.47435   -24958.851   -25988.124    175.97445    286.34601    542.96033     -301.383    41.314063    41.314063    82.628125 
   11000    998.09888   -24958.339   -25990.325     7.580912   -169.91325    124.53283    68.123153    41.314383    41.314383    82.628765 
   11100    999.08921   -24957.814   -25990.825   -22.631775    135.11659    76.647451   -279.65936    41.315208    41.315208    82.630417 
   11200    990.89923   -24957.328    -25981.87    179.68693    639.57723    224.77004   -325.28648    41.316202    41.316202    82.632405 
   11300    997.73641    -24956.85   -25988.462    22.052743   -253.59486    354.57895   -34.825861    41.317429    41.317429    82.634858 
   11400    1003.2237   -24956.472   -25993.757   -131.50445    31.395326    180.20538   -606.11407    41.318264    41.318264    82.636528 
   11500    1009.2601   -24956.132   -25999.658   -367.77043   -582.88089    -53.29795   -467.13245    41.318833    41.318833    82.637665 
   11600    997.82887   -24955.814   -25987.521   -94.534047    268.69946   -794.13263    241.83102    41.318841    41.318841    82.637683 
   11700    994.03753   -24955.506   -25983.293    179.16325    582.92464   -384.30067    338.86579    41.318449    41.318449    82.636898 
   11800    1012.7507   -24955.177   -26002.313   -312.86782   -661.00957   -410.53954    132.94566    41.318288    41.318288    82.636577 
   11900    990.65759   -24954.924   -25979.216    295.28933    109.90236    674.33555    101.63007    41.317739    41.317739    82.635479 
   12000    992.77309    -24954.62   -25981.099     103.8525    458.30616    302.45442   -449.20307    41.317819    41.317819    82.635638 
   12100    1006.1622   -24954.381   -25994.704   -197.27427   -415.24202    377.44626   -554.02704     41.31752     41.31752     82.63504 
   12200    1005.0922   -24954.246   -25993.463   -61.934545    7.9385095   -22.707513   -171.03463    41.316782    41.316782    82.633563 
   12300    1006.3211   -24954.125   -25994.613   -177.14365    69.240293   -771.01507    170.34383    41.316558    41.316558    82.633117 
   12400    1000.6735   -24953.979   -25988.627    103.31024   -210.93991    272.44259    248.42804    41.316755    41.316755    82.633509 
   12500     1003.996   -24953.841   -25991.924   -76.923479    124.41004   -401.19516    46.014683     41.31747     41.31747    82.634941 
   12600    998.99494   -24953.758    -25986.67   -34.868772    288.85852   -50.783129   -342.68171    41.318013    41.318013    82.636027 
   12700     1007.726   -24953.685   -25995.625   -197.82163   -281.77212   -400.89274    89.199992    41.318357    41.318357    82.636715 
   12800    997.35249   -24953.665    -25984.88    37.787128     430.8999   -79.807796   -237.73072    41.318445    41.318445    82.636889 
   12900    1007.0585   -24953.589   -25994.839   -242.04954   -642.72816   -352.84473    269.42428    41.318886    41.318886    82.637773 
   13000    1003.6747   -24953.524   -25991.275   -59.123608     -76.4632    398.81228   -499.71991    41.319086    41.319086    82.638172 
   13100     1001.556   -24953.465   -25989.025   -209.61806   -123.01118   -259.32685   -246.51615    41.319176    41.319176    82.638351 
   13200    996.65008   -24953.397   -25983.885    29.072807   -252.37006    622.93379   -283.34531    41.318923    41.318923    82.637846 
   13300    1002.7549   -24953.298   -25990.098   -109.07408   -206.38822    72.265122   -193.09914     41.31861     41.31861    82.637219 
   13400    1007.3639   -24953.247   -25994.813   -84.880208   -245.47551   -4.5168352   -4.6482758    41.317982    41.317982    82.635963 
   13500    998.73883   -24953.219   -25985.867    1.8679638    138.55568    209.69313   -342.64493    41.317479    41.317479    82.634959 
   13600    994.47258   -24953.204    -25981.44    228.58167   -54.537232    370.90834    369.37389    41.317008    41.317008    82.634015 
   13700    1005.0034   -24953.218   -25992.343    54.826686   -179.95937   -5.7536415    350.19308      41.3169      41.3169    82.633799 
   13800    994.94774   -24953.246   -25981.974    281.60902    248.78373    562.73616    33.307186    41.317361    41.317361    82.634723 
   13900    1006.4931   -24953.221   -25993.886   -138.05669     171.9236    -308.6068   -277.48685    41.318748    41.318748    82.637496 
   14000    997.35705   -24953.258   -25984.477    55.197949    59.212772   -106.35793    212.73901    41.319953    41.319953    82.639906 
   14100    999.97138   -24953.294   -25987.217   -71.139972    333.70362   -201.32006   -345.80347    41.321027    41.321027    82.642054 
   14200    999.43127   -24953.314   -25986.678   -236.22484   -195.16671    73.129517   -586.63732     41.32179     41.32179    82.643581 
   14300    989.30681   -24953.319   -25976.215    138.20012   -65.417705    118.65129    361.36677    41.321473    41.321473    82.642945 
   14400    1003.8036   -24953.267   -25991.152   -102.55957    111.04336    215.56919   -634.29127    41.320669    41.320669    82.641338 
   14500    1002.4735     -24953.2   -25989.709   -122.12097   -459.31885    576.85947   -483.90354    41.319533    41.319533    82.639066 
   14600    985.07883   -24953.156    -25971.68    440.53625     611.5623    896.19724   -186.15079    41.318175    41.318175    82.636349 
   14700    994.37261   -24953.086   -25981.219    220.08616    208.22962    518.64565   -66.616787    41.317292    41.317292    82.634585 
   14800    999.57323   -24953.058   -25986.569    43.797967    402.63938    -355.9255    84.680019    41.316625    41.316625    82.633249 
   14900    995.11345   -24953.059   -25981.958    194.59101    -321.2359    326.52452    578.48441    41.316178    41.316178    82.632356 
   15000    1005.3403   -24953.073   -25992.546    59.145695   -535.87963    80.731169    632.58555    41.316281    41.316281    82.632563 
   15100    992.69432   -24953.072    -25979.47    196.13828    55.226209    241.22378    291.96486    41.316957    41.316957    82.633914 
   15200    1011.3189   -24953.045     -25998.7   -250.88086    -266.9401   -528.14661    42.444131    41.318167    41.318167    82.636334 
   15300    996.71076   -24953.107   -25983.658    92.596528    -190.8875     46.60625    422.07084    41.318884    41.318884    82.637767 
   15400    1001.4233   -24953.133   -25988.556   -68.948459    54.353519   -167.08918   -94.109717    41.319922    41.319922    82.639843 
   15500    999.18735   -24953.163   -25986.274    -50.04627   -5.1915284    234.62278   -379.57006    41.321032    41.321032    82.642064 
   15600    1000.1605   -24953.249   -25987.367   -112.65235   -208.03106    154.99383   -284.91981     41.32141     41.32141    82.642819 
   15700    987.05982   -24953.344   -25973.917    167.04832    379.28242    69.308958    52.553591    41.320902    41.320902    82.641804 
   15800     990.7612   -24953.385   -25977.785    121.64247   -109.19523   -292.62691    766.74954    41.319977    41.319977    82.639954 
   15900    998.24376   -24953.421   -25985.557    101.73296    15.871698   -222.20352    511.53069    41.318506    41.318506    82.637012 
   16000    997.87306   -24953.473   -25985.226    86.900768    463.14493   -158.99621   -43.446418     41.31719     41.31719     82.63438 
   16100     1007.188   -24953.499   -25994.883   -25.016629   -562.23181   -263.68823    750.87015    41.316713    41.316713    82.633426 
   16200    1008.8898   -24953.536    -25996.68   -163.58966    441.56374   -333.88972   -598.44299    41.316914    41.316914    82.633828 
   16300    998.78753    -24953.61   -25986.308    145.51197    653.57717   -465.54763    248.50639    41.317309    41.317309    82.634619 
   16400    1003.4955   -24953.743   -25991.309   -169.99123    -23.54793   -501.94672    15.520961    41.317319    41.317319    82.634639 
   16500    997.68078   -24953.886    -25985.44    207.09885    344.88769   -339.62649    616.03534    41.316931    41.316931    82.633862 
   16600    1002.6194   -24954.002   -25990.662   -50.434518    728.11801    -766.4752   -112.94637    41.317175    41.317175    82.634349 
   16700    1000.0931   -24954.044   -25988.092    41.808028     284.7003    102.22075   -261.49697    41.318204    41.318204    82.636408 
   16800     998.1543   -24954.121   -25986.164    28.348671    20.680697   -94.963733    159.32905    41.318876    41.318876    82.637753 
   16900    986.70609   -24954.185   -25974.391    223.66865    259.89394    248.15706    162.95495    41.319518    41.319518    82.639036 
   17000    997.13025   -24954.113   -25985.097   -37.009985    142.01357    201.92721   -454.97074    41.320671    41.320671    82.641342 
   17100    994.19904   -24954.078   -25982.032    108.02446    222.31795   -199.27806    301.03349      41.3209      41.3209    82.641801 
   17200    995.34156   -24954.039   -25983.174   -48.275974    22.233096    204.75614   -371.81716    41.320557    41.320557    82.641114 
   17300    1004.6587   -24953.949   -25992.717   -95.070126    444.41869   -412.14117    -317.4879    41.320055    41.320055    82.640109 
   17400    991.88965   -24953.926   -25979.492      209.142      140.813   -269.32959    755.94259    41.318994    41.318994    82.637987 
   17500    991.89939   -24953.862   -25979.438    152.21651      425.641    9.1479116    21.860614    41.318178    41.318178    82.636357 
   17600    997.41216   -24953.807   -25985.084    167.41735   -319.67553    134.15435    687.77324    41.317422    41.317422    82.634845 
   17700    1005.0565   -24953.782   -25992.962   -59.466374   -677.80045    393.27447    106.12686    41.317045    41.317045     82.63409 
   17800    1006.8198   -24953.725   -25994.728   -89.556746   -386.59265    204.73065   -86.808243    41.317471    41.317471    82.634943 
   17900    997.10106   -24953.721   -25984.676     141.3017    194.10501    224.68362    5.1164849    41.318074    41.318074    82.636148 
   18000    1006.5464   -24953.713   -25994.434   -171.04016    3.9561082   -124.00005   -393.07654    41.319073    41.319073    82.638146 
   18100    1002.5555   -24953.682   -25990.276   -74.107487     -230.367   -350.37693    358.42146    41.320363    41.320363    82.640726 
   18200    992.74633   -24953.623   -25980.075    105.33892   -181.03132    64.059833    432.98826    41.321475    41.321475     82.64295 
   18300    1004.7528   -24953.546   -25992.412   -236.89863    41.639914    -115.9606   -636.37522    41.322286    41.322286    82.644572 
   18400    996.86627   -24953.492   -25984.204   -41.356974    122.05506    16.583923    -262.7099    41.322316    41.322316    82.644632 
   18500    1001.6456   -24953.421   -25989.074   -180.49565    383.42426   -547.03695   -377.87426    41.321825    41.321825    82.643649 
   18600    998.77838   -24953.344   -25986.033   -36.499111   -21.251005   -106.33534    18.089012    41.320628    41.320628    82.641256 
   18700    1012.2926   -24953.231   -25999.893   -317.80839   -315.52488   -294.54064   -343.35966    41.319321    41.319321    82.638641 
   18800    988.25656   -24953.239   -25975.049    319.47995    795.76292    108.37988    54.297048    41.317149    41.317149    82.634298 
   18900    996.26406   -24953.212   -25983.301    255.47672   -27.843419    728.41134    65.862234    41.315478    41.315478    82.630957 
   19000    1007.4571   -24953.195   -25994.857     115.3087   -64.819071    455.92405   -45.178889    41.314701    41.314701    82.629402 
   19100    995.55693   -24953.275   -25982.633    323.17057    26.027734    994.74874   -51.264774    41.314666    41.314666    82.629331 
   19200    1000.0271   -24953.334   -25987.314    173.79323   -385.90688     865.2673    42.019253    41.315778    41.315778    82.631557 
   19300    1006.9138    -24953.36   -25994.461   -94.516096   -433.74782    62.481973     87.71756    41.317859    41.317859    82.635719 
   19400    988.89461   -24953.377   -25975.847    255.12715    493.03508    349.96516   -77.618799    41.320261    41.320261    82.640523 
   19500    1010.6642   -24953.364   -25998.343   -552.97072    -485.7162   -1099.1828   -74.013185    41.322359    41.322359    82.644717 
   19600    992.12927   -24953.366    -25979.18   -67.143751   -171.70144    113.28452   -143.01433    41.323029    41.323029    82.646057 
   19700    1000.0901   -24953.323   -25987.368   -187.70646   -34.048044   -257.91042   -271.16091    41.322768    41.322768    82.645536 
   19800    1005.3561   -24953.242   -25992.732   -170.53101   -160.75181   -69.381824   -281.45939    41.321644    41.321644    82.643288 
   19900    1013.7421   -24953.196   -26001.356   -327.37087   -510.59042   -464.24072    -7.281457    41.319715    41.319715     82.63943 
   20000    1014.9887   -24953.252   -26002.701    -307.7053   -718.07387   -427.07339    222.03136    41.317128    41.317128    82.634255 
   20100    1001.0589   -24953.318   -25988.365    99.527457    -15.39338   -10.398352     324.3741    41.314998    41.314998    82.629996 
   20200    1004.9975    -24953.36   -25992.479    109.63399    442.29988    -54.46978   -58.928133     41.31415     41.31415    82.628301 
   20300    1006.7497   -24953.418   -25994.349    8.6553418   -621.72996    480.45322    167.24276    41.314418    41.314418    82.628836 
   20400    1002.8346   -24953.499   -25990.382    133.87715    453.99304    22.321346   -74.682927    41.315139    41.315139    82.630277 
   20500    996.04114   -24953.616   -25983.474    263.77492   -152.85318    205.19731    738.98064     41.31655     41.31655      82.6331 
   20600    990.89957   -24953.718   -25978.261    449.21109    592.99259    262.26757    492.37311    41.318597    41.318597    82.637194 
   20700     999.2082   -24953.769   -25986.903   -66.329597   -201.36093   -211.07735    213.44948    41.321536    41.321536    82.643071 
   20800     993.9034   -24953.838   -25981.486   -92.191771    79.138837    31.736248    -387.4504    41.323677    41.323677    82.647354 
   20900    995.87515   -24953.897   -25983.584   -149.39737   -562.89623   -17.055157    131.75926    41.324228    41.324228    82.648455 
   21000    1011.4789   -24953.969   -25999.789   -507.56322   -352.54668   -731.22021   -438.92277    41.323407    41.323407    82.646814 
   21100    994.39237   -24954.073   -25982.227    20.281422   -124.17645   -307.62984    492.65056    41.321088    41.321088    82.642176 
   21200    1001.8722   -24954.161   -25990.049   -65.198661    65.174708   -219.70888   -41.061813    41.318219    41.318219    82.636439 
   21300    984.76654   -24954.269   -25972.471    562.45324    320.57524    452.71409    914.07038    41.315378    41.315378    82.630756 
   21400    1000.5365   -24954.297   -25988.803    148.04722   -105.36796    145.25433    404.25529    41.313888    41.313888    82.627776 
   21500    1019.2946    -24954.32   -26008.222   -370.36451    -1063.468   -232.02617     184.4007     41.31341     41.31341     82.62682 
   21600    996.35278   -24954.423   -25984.604     408.7464   -40.946089    393.21154    873.97377    41.313232    41.313232    82.626465 
   21700    989.51236   -24954.482    -25977.59     353.6243   -322.82767    552.21796    831.48259     41.31454     41.31454     82.62908 
   21800    995.17487   -24954.497    -25983.46    285.08716   -30.967134    358.61852     527.6101    41.316775    41.316775     82.63355 
   21900    1003.9361   -24954.577   -25992.599   -179.30057    49.550549   -243.50274   -343.94952    41.319004    41.319004    82.638008 
   22000    1000.4273   -24954.646    -25989.04   -86.755683   -249.27842   -21.039123    10.050495    41.320872    41.320872    82.641744 
   22100    1008.0619   -24954.627   -25996.914   -432.70967   -656.72225   -198.58454   -442.82223    41.322642    41.322642    82.645283 
   22200     998.6745   -24954.616   -25987.198   -183.86611   -86.098945   -311.12635   -154.37302     41.32301     41.32301    82.646019 
   22300    997.62516   -24954.551   -25986.047   -187.71164   -436.60155   -144.75107    18.217703     41.32253     41.32253    82.645059 
   22400    996.49894   -24954.482   -25984.814   -109.79069    676.31705   -481.74822   -523.94091    41.320825    41.320825    82.641649 
   22500    1010.3914   -24954.349   -25999.045   -336.38302   -221.61507   -105.50145   -682.03252    41.318929    41.318929    82.637858 
   22600     1006.632   -24954.241    -25995.05   -41.654209    -401.8818   -379.67577    656.59494    41.316522    41.316522    82.633044 
   22700    991.60018    -24954.16   -25979.427    397.60848   -331.33717    1075.2217    448.94088    41.314547    41.314547    82.629094 
   22800    1001.2278   -24954.111   -25989.333      165.499    456.13642    440.07971   -399.71912    41.313501    41.313501    82.627003 
   22900    993.52106    -24954.07   -25981.323     400.1815    157.64968    702.16975    340.72507    41.313605    41.313605     82.62721 
   23000    999.68619   -24953.961   -25987.588     83.93392    243.84531    89.509743   -81.553288    41.315661    41.315661    82.631323 
   23100    1007.0676   -24953.885   -25995.145   -84.994818    397.80128     -776.584    123.79827     41.31812     41.31812    82.636239 
   23200     1002.484   -24953.853   -25990.373   -105.78083     125.1873   -385.55963   -56.970163    41.320396    41.320396    82.640793 
   23300     1005.513   -24953.789   -25993.441   -471.01851   -52.689782   -930.69994   -429.66581    41.322452    41.322452    82.644903 
   23400    993.21636   -24953.715   -25980.653   -87.428925   -69.334193   -536.05999    343.10741     41.32327     41.32327     82.64654 
   23500    1000.8565   -24953.615   -25988.452    -203.4738   -461.60806   -294.50886    145.69551    41.323164    41.323164    82.646328 
   23600    1004.8515   -24953.537   -25992.505   -400.16694    -227.9096   -784.15467   -188.43653    41.322071    41.322071    82.644142 
   23700    990.59203   -24953.491   -25977.716    142.23089    461.69084   -214.02348    179.02531    41.319928    41.319928    82.639856 
   23800    995.48959   -24953.435   -25982.724    91.723203     311.6182   -32.413507    -4.035085    41.317693    41.317693    82.635385 
   23900    1000.4849   -24953.428   -25987.881    217.67097    942.90249   -99.366293   -190.52327    41.315335    41.315335     82.63067 
   24000    999.33137   -24953.441   -25986.701    277.75725    251.03887    516.35433    65.878566    41.313882    41.313882    82.627765 
   24100    999.14626   -24953.424   -25986.494    283.49452    184.01465    428.71283    237.75608    41.314052    41.314052    82.628104 
   24200    1005.2042   -24953.423   -25992.756   -19.150385   -240.71551   -206.54509    389.80944    41.315491    41.315491    82.630982 
   24300    1002.9085   -24953.419   -25990.378   -90.883121    82.209853   -231.32958   -123.52964     41.31764     41.31764    82.635279 
   24400    1013.9573   -24953.496   -26001.879   -315.30094   -195.37354   -544.78632   -205.74296    41.319356    41.319356    82.638713 
   24500    1001.2944   -24953.549   -25988.839   -134.69671   -887.00966    356.11222     126.8073    41.320963    41.320963    82.641927 
   24600    999.12135   -24953.594   -25986.637   -257.07288    -208.4285   -573.35676    10.566608    41.322038    41.322038    82.644077 
   24700    1005.9359   -24953.585   -25993.674    -389.0253   -695.48729   -416.64187   -54.946745    41.322348    41.322348    82.644695 
   24800     996.7272   -24953.537   -25984.105   -29.431413    89.349426   -561.49491    383.85124    41.321737    41.321737    82.643474 
   24900    1009.1255   -24953.453    -25996.84    -309.0874    39.951512   -1049.9133     82.69955    41.320501    41.320501    82.641002 
   25000    1001.1992   -24953.369   -25988.561    36.319277    660.11644   -161.82353   -389.33507    41.318801    41.318801    82.637602 
   25100    999.66776   -24953.327   -25986.936     40.43483    322.66432    353.84939   -555.20921    41.317118    41.317118    82.634235 
   25200     1004.811   -24953.295   -25992.221     21.88673    486.30559   -44.824629   -375.82078    41.316039    41.316039    82.632077 
   25300     1008.855   -24953.294   -25996.402   -17.257284    250.60262   -336.29517    33.920698     41.31576     41.31576    82.631521 
   25400    997.02248   -24953.328   -25984.202    335.89403     664.6349   -237.75909    580.80626     41.31636     41.31636    82.632719 
   25500    992.77337   -24953.406   -25979.885    249.28161    622.72805   -119.67904    244.79581    41.317752    41.317752    82.635504 
   25600    988.47298   -24953.496   -25975.529    219.46912    315.80924    559.87418   -217.27606    41.319317    41.319317    82.638635 
   25700    1002.6046   -24953.554   -25990.199   -249.96368   -312.55666   -95.328581   -342.00581    41.320904    41.320904    82.641807 
   25800    999.99089   -24953.582   -25987.525   -108.26184     38.54367    184.25551    -547.5847    41.321781    41.321781    82.643561 
   25900    996.84709   -24953.561   -25984.253   -140.90323   -347.82545     63.54554   -138.42979    41.322176    41.322176    82.644352 
   26000    997.61655    -24953.53   -25985.017   -106.72329   -1051.0658    758.62791   -27.732022     41.32169     41.32169    82.643381 
   26100    1003.3863   -24953.487    -25990.94   -158.14534   -145.67933    -135.6267   -193.12999    41.320483    41.320483    82.640967 
   26200    1001.1265    -24953.46   -25988.577  -0.63271038   -431.58563    430.49345  -0.80595568      41.3189      41.3189      82.6378 
   26300    1002.9953   -24953.398   -25990.446    22.502218   -49.449552   -280.20768    397.16388    41.317693    41.317693    82.635386 
   26400    1012.9914   -24953.296   -26000.681    -216.0779    3.8834164   -457.45955   -194.65758    41.317187    41.317187    82.634373 
   26500    995.79722   -24953.274    -25982.88    242.09964    48.144106    401.35864    276.79617    41.316773    41.316773    82.633545 
   26600    1003.2991   -24953.206   -25990.569    134.94847    290.12254    243.06343   -128.34058    41.317198    41.317198    82.634397 
   26700    1000.7632   -24953.155   -25987.896    33.918969    276.68189   -99.979511   -74.945478    41.318198    41.318198    82.636395 
   26800    997.27495     -24953.1   -25984.234    34.587922    144.77138   -63.461945    22.454329    41.319666    41.319666    82.639332 
   26900    990.45026    -24953.05   -25977.128   -30.285369   -146.43237     581.3059   -525.72964    41.320947    41.320947    82.641893 
   27000    1007.5348   -24952.934   -25994.677   -443.37975   -48.597456   -1104.2049   -177.33687    41.321763    41.321763    82.643526 
   27100    1002.0785   -24952.846   -25988.947   -69.854592   -591.74981   -54.849672    437.03571    41.321271    41.321271    82.642541 
   27200    1006.1283   -24952.787   -25993.075   -191.85788    33.920418   -510.68706   -98.806984    41.320241    41.320241    82.640481 
   27300    992.89741    -24952.79   -25979.398    179.70993     -496.058    100.18858    934.99921      41.3187      41.3187      82.6374 
   27400    996.68766   -24952.822    -25983.35    215.98501    392.92776     488.5083   -233.48102    41.317286    41.317286    82.634572 
   27500    1003.4644    -24952.83   -25990.364    99.628462    555.80308   -603.69492    346.77722    41.316809    41.316809    82.633617 
   27600    1001.7122   -24952.885   -25988.607   -19.659909   -28.130147    88.223279   -119.07286    41.316861    41.316861    82.633722 
   27700    992.64736   -24952.904   -25979.254    245.65816    880.16824   -57.866121   -85.327655    41.317444    41.317444    82.634888 
   27800      996.033   -24952.923   -25982.773    104.30637    42.419053    248.49468    22.005381    41.318279    41.318279    82.636558 
   27900    998.20121   -24952.953   -25985.045    3.8072289   -233.99056     123.2329    122.17935    41.318913    41.318913    82.637825 
   28000    999.68829    -24953.01    -25986.64   -112.21779   -276.86404   -167.15498    107.36565    41.319132    41.319132    82.638264 
   28100    997.66917   -24952.997   -25984.539    44.965544    373.83402    14.741132   -253.67852     41.31951     41.31951     82.63902 
   28200    995.52156   -24953.028   -25982.349    154.88631    236.97039   -101.16096     328.8495    41.319551    41.319551    82.639102 
   28300    1001.1589   -24953.025   -25988.175   -9.5926808   -128.01314   -66.374999     165.6101    41.319853    41.319853    82.639707 
   28400     997.0974   -24953.057   -25984.008    82.847121   -148.33681    162.27626    234.60191    41.319796    41.319796    82.639592 
   28500    987.34256   -24953.089   -25973.954    367.28548    330.78047    963.16785   -192.09188    41.319382    41.319382    82.638764 
   28600    994.42871   -24953.116   -25981.307    175.33259    617.23281    424.08222   -515.31724    41.319141    41.319141    82.638283 
   28700    1001.4497   -24953.112   -25988.563   -69.000162    238.78819   -167.02562   -278.76306    41.319325    41.319325     82.63865 
   28800    996.02757   -24953.096   -25982.941    87.127692   -381.84081   -12.145368    655.36925    41.319603    41.319603    82.639207 
   28900    1000.3407   -24953.116    -25987.42    58.100722     -331.477    258.37292    247.40625    41.319742    41.319742    82.639484 
   29000    999.82532   -24953.173   -25986.944    52.191033   -399.42101    406.75001     149.2441    41.319758    41.319758    82.639515 
   29100    999.93604   -24953.244   -25987.129    35.893136    740.75617   -346.83184   -286.24493    41.319704    41.319704    82.639409 
   29200    1006.9426   -24953.362   -25994.492    -74.03204   -169.49564    529.62341   -582.22389    41.319208    41.319208    82.638417 
   29300    1001.0893    -24953.52   -25988.598   -25.653856   -245.26221    219.49625   -51.195613    41.318659    41.318659    82.637317 
   29400    996.15248   -24953.695   -25983.668    117.33512   -72.942868    416.21569    8.7325498    41.318231    41.318231    82.636461 
   29500    1005.5094   -24953.804   -25993.452    -179.1029   -179.97344    179.02304    -536.3583    41.318436    41.318436    82.636871 
   29600    1006.3135   -24953.893   -25994.373   -49.884386   -163.44697    -107.8429    121.63671     41.31877     41.31877    82.637539 
   29700    989.19776   -24953.969   -25976.752    218.26433   -120.13255    383.57058    391.35495      41.3192      41.3192    82.638401 
   29800    1005.4721   -24953.946   -25993.556   -236.79005     302.0744   -563.36508   -449.07948    41.320009    41.320009    82.640017 
   29900    1001.4965   -24953.952   -25989.451    23.561273   -48.539125    -59.50887    178.73181    41.320121    41.320121    82.640241 
   30000    996.31303   -24953.991   -25984.131    37.770368   -417.80308    83.605594    447.50859    41.319655    41.319655     82.63931 
   30100    986.07574   -24954.037   -25973.592    298.25782     229.3586     368.6219    296.79295    41.318573    41.318573    82.637147 
   30200    1014.3094   -24954.006   -26002.753    -350.4381   -421.78588     -301.098   -328.43042     41.31795     41.31795    82.635899 
   30300    1003.8983   -24953.992   -25991.975   -118.12354    344.76402   -446.63405   -252.50058     41.31719     41.31719    82.634381 
   30400    1004.5326   -24953.977   -25992.615   -110.70632   -110.55785   -51.464559   -170.09655    41.316604    41.316604    82.633208 
   30500     998.6493   -24953.922   -25986.477    8.5708246    291.98509   -419.81261    153.53999    41.316371    41.316371    82.632742 
   30600    1000.3306   -24953.902   -25988.196    26.697081   -175.30316    494.29843   -238.90403    41.316151    41.316151    82.632301 
   30700    1009.4542   -24953.866   -25997.593   -79.906691    327.31049    8.4700904   -575.50066     41.31635     41.31635      82.6327 
   30800    1006.6578   -24953.898   -25994.734    55.902919    87.056918    49.057817    31.594022    41.316825    41.316825     82.63365 
   30900    996.77524   -24953.976   -25984.593    101.14944    414.43086    196.66539   -307.64794    41.317498    41.317498    82.634996 
   31000    989.52893   -24953.991   -25977.116    213.78217    -70.45217    454.85764    256.94105    41.318758    41.318758    82.637515 
   31100     1001.211   -24953.958   -25989.162   -158.32859   -476.21394   -348.66054     349.8887     41.32011     41.32011     82.64022 
   31200    994.75502   -24953.909   -25982.438   -34.520798    -83.76236   -103.17611    83.376072    41.320697    41.320697    82.641394 
   31300    990.80037   -24953.841   -25978.281    4.2697587   -268.99355    189.78068    92.022138    41.320529    41.320529    82.641058 
   31400     994.8599   -24953.718   -25982.355    53.967312   -427.30767    472.55748    116.65212    41.319693    41.319693    82.639386 
   31500    1010.3726   -24953.595   -25998.271   -212.12668   -373.82303   -308.14575    45.588753    41.318564    41.318564    82.637127 
   31600    999.12468   -24953.515   -25986.562    106.73748   -1.3544316    232.85827     88.70859    41.317385    41.317385     82.63477 
   31700    994.90035   -24953.367   -25982.046     255.5904   -44.372824    573.96747    237.17654    41.317266    41.317266    82.634533 
   31800    1002.7929   -24953.216   -25990.056  -0.98537786    115.23965   -49.443812   -68.751968    41.317857    41.317857    82.635715 
   31900    1000.9411   -24953.131   -25988.056    64.929965   -158.83633     259.9511    93.675133    41.318444    41.318444    82.636888 
   32000    1009.0053   -24953.071   -25996.334   -229.62461   -53.677294   -19.209756   -615.98677    41.319495    41.319495     82.63899 
   32100    999.78946   -24953.035   -25986.769    -149.8444    -535.2505    118.99915    -33.28185    41.320106    41.320106    82.640211 
   32200    993.45639   -24952.947   -25980.133    83.822985   -141.81441   -183.63118    576.91455    41.320391    41.320391    82.640782 
   32300    993.13614   -24952.817   -25979.672     140.3846   -390.76703   -4.6528027    816.57364    41.320486    41.320486    82.640971 
   32400    1010.5765   -24952.686   -25997.574   -392.42914     113.6043   -904.67891   -386.21281    41.320365    41.320365     82.64073 
   32500    1004.1941   -24952.608   -25990.897   -87.488498   -341.24226   -87.404642    166.18141    41.319566    41.319566    82.639132 
   32600    1003.5392   -24952.597   -25990.208   -135.46145   -288.58899   -193.20915    75.413778    41.318296    41.318296    82.636591 
   32700    1000.4095   -24952.611   -25986.986    196.95586   -242.09978   -47.811756    880.77911    41.317042    41.317042    82.634084 
   32800    1014.0739   -24952.666    -26001.17   -105.88307   -61.159345   -361.66292    105.17306    41.316227    41.316227    82.632455 
   32900    1003.9009   -24952.775    -25990.76    10.483326     286.5096   -164.88622   -90.173407    41.316089    41.316089    82.632178 
   33000    998.33381   -24952.854   -25985.083    128.73775   -783.65552    380.75938    789.10939    41.317047    41.317047    82.634094 
   33100    996.37613   -24952.938   -25983.143    135.50867    602.86697    29.982107   -226.32306    41.318445    41.318445    82.636891 
   33200    1003.7844    -24953.01   -25990.875   -111.18709   -414.50433    221.11892   -140.17585     41.31989     41.31989     82.63978 
   33300    1002.2608   -24953.072   -25989.361   -112.12503    422.01839   -458.78571   -299.60778    41.321077    41.321077    82.642153 
   33400    1009.8781   -24953.121   -25997.286   -415.28345   -267.27544   -1108.7316    130.15674    41.321588    41.321588    82.643176 
   33500    992.07777   -24953.179    -25978.94     124.5318   -162.60494    311.48839    224.71194    41.321046    41.321046    82.642092 
   33600    1004.3926     -24953.2   -25991.694   -183.25419    37.307518   -453.29994   -133.77015    41.320311    41.320311    82.640622 
   33700     992.5779    -24953.28   -25979.558     164.9108    -585.4977    527.52536    552.70475     41.31902     41.31902     82.63804 
   33800     1007.066   -24953.384   -25994.642   -171.57491   -119.24751   -162.78993    -232.6873    41.317799    41.317799    82.635598 
   33900     1002.321   -24953.485   -25989.836    54.693489    465.02559   -468.40602     167.4609    41.316853    41.316853    82.633706 
   34000    995.74835   -24953.581   -25983.137    279.29425   -238.93669     769.1153    307.70415     41.31634     41.31634     82.63268 
   34100     1007.271   -24953.643   -25995.113   -93.428436   -47.838362   -269.37751    36.930563    41.316714    41.316714    82.633428 
   34200     1001.325    -24953.79   -25989.112    44.107592   -313.21641    252.07542    193.46376    41.317206    41.317206    82.634413 
   34300    1000.2304   -24953.916   -25988.106    35.953472   -438.68383    668.55529   -122.01104     41.31811     41.31811    82.636221 
   34400     1001.896   -24954.072   -25989.985   -167.09284   -892.16281    806.72274   -415.83844    41.318593    41.318593    82.637187 
   34500    995.05901   -24954.226   -25983.069    131.45842   -449.97645    360.53468    483.81704    41.318637    41.318637    82.637274 
   34600    1000.6227   -24954.286   -25988.881    55.749372   -430.07868    261.08865    336.23815    41.319001    41.319001    82.638001 
   34700     984.5943    -24954.32   -25972.343    326.62661   -114.54728    823.60707    270.82003    41.319431    41.319431    82.638861 
   34800    1002.0886   -24954.271   -25990.382   -92.740986   -240.81624    -201.5144    164.10769    41.320212    41.320212    82.640424 
   34900     1007.178   -24954.223   -25995.597   -378.75459   -758.58806    66.255464   -443.93116    41.320628    41.320628    82.641256 
   35000    1010.5215   -24954.185   -25999.016   -390.36142   -379.22864   -369.98437   -421.87123     41.32039     41.32039     82.64078 
   35100    993.42448   -24954.148   -25981.301    112.41821   -557.36103    968.80452   -74.188849    41.319645    41.319645    82.639289 
   35200    1008.5884   -24954.004   -25996.836   -320.11748    -341.5627   -734.42957    115.63983    41.319376    41.319376    82.638752 
   35300    1002.3711    -24953.82   -25990.224   -80.603092   -146.75113     121.1684   -216.22655    41.319051    41.319051    82.638102 
   35400    1005.1279   -24953.597   -25992.851   -135.64046    292.87114   -647.78751   -52.005022    41.318912    41.318912    82.637824 
   35500    1010.0386   -24953.447   -25997.778   -301.46445   -824.53268   -180.61919    100.75851     41.31838     41.31838     82.63676 
   35600     998.0369   -24953.283   -25985.205    53.200175   -64.407977   -178.70819     402.7167    41.317845    41.317845    82.635691 
   35700    1007.1282    -24953.15   -25994.472   -274.24459   -821.43605   -38.650778    37.353067    41.317467    41.317467    82.634935 
   35800    992.94154   -24953.031   -25979.685    312.32311    599.54845    736.70619   -399.28531    41.316975    41.316975    82.633951 
   35900    1009.2038    -24952.88   -25996.348   -186.46248    -337.8957   -98.844018   -122.64772    41.317201    41.317201    82.634401 
   36000    998.73564   -24952.784   -25985.429    127.28845    758.15001   -431.96967    55.685017    41.317314    41.317314    82.634628 
   36100    993.65432   -24952.698   -25980.089    67.181164    129.13993    218.05287   -145.64931    41.317792    41.317792    82.635583 
   36200    995.06821   -24952.614   -25981.467    77.867305    543.06733   -195.92826   -113.53715     41.31807     41.31807    82.636141 
   36300    1002.0838   -24952.488   -25988.594   -63.272766   -48.254979   -171.19703    29.633711    41.318631    41.318631    82.637262 
   36400    997.31501   -24952.426   -25983.601    125.69695    210.70317   -12.386424    178.77411    41.318895    41.318895     82.63779 
   36500    998.87036   -24952.399   -25985.183    67.668718    121.12225    450.56498   -368.68107    41.319029    41.319029    82.638058 
   36600    996.59275   -24952.424   -25982.853     285.2189    587.83449     333.9345    -66.11228    41.318913    41.318913    82.637827 
   36700    1002.0212   -24952.462   -25988.504   -23.467275    286.98229   -229.32547   -128.05865    41.319109    41.319109    82.638217 
   36800    987.59149   -24952.509   -25973.631    429.12412    319.41169    695.19671    272.76396    41.319227    41.319227    82.638455 
   36900     1002.436   -24952.504   -25988.975   -75.149561    136.59036    77.080609   -439.11965    41.320015    41.320015     82.64003 
   37000    1005.5436   -24952.495   -25992.178   -187.38268   -149.55616   -359.19331    -53.39856    41.320812    41.320812    82.641624 
   37100    990.97923   -24952.506   -25977.131    104.05661    545.14723    235.21604   -468.19344     41.32122     41.32122     82.64244 
   37200    1006.0462   -24952.534   -25992.737   -232.95714   -491.23718   -24.247915   -183.38633    41.321109    41.321109    82.642218 
   37300     994.4034   -24952.642   -25980.807    5.4181145    470.18911     13.70688   -467.64165    41.319925    41.319925    82.639849 
   37400    1000.0692   -24952.713   -25986.736    -111.9635    258.91297   -574.92681   -19.876647    41.318512    41.318512    82.637024 
   37500    1000.3739    -24952.76   -25987.099   -44.333503    136.51016   -180.52909   -88.981573      41.3169      41.3169      82.6338 
   37600    996.49469   -24952.849   -25983.177    201.25649    593.43245   -290.07229    300.40931    41.315007    41.315007    82.630014 
   37700    998.83109   -24952.924   -25985.668    226.85846    540.30328    62.661401    77.610709    41.314088    41.314088    82.628176 
   37800    997.45881   -24952.983   -25984.308    225.54759    957.37759   -227.21224   -53.522571    41.314518    41.314518    82.629036 
   37900    1001.6262   -24953.039   -25988.673    59.815345   -199.33376   -257.58417    636.36396    41.316006    41.316006    82.632012 
   38000    998.30509   -24953.102   -25985.301    113.51185    286.30832   -138.77462    193.00184    41.317985    41.317985    82.635969 
   38100    998.32368   -24953.059   -25985.277   -88.246149   -121.68047    -125.8732   -17.184769    41.320918    41.320918    82.641836 
   38200    1014.7864   -24952.969   -26002.209   -542.70457   -372.81762   -941.62107   -313.67503    41.323463    41.323463    82.646926 
   38300      984.284   -24952.904   -25970.606     111.2846     167.8196    25.789661    140.24452    41.324323    41.324323    82.648647 
   38400     992.2816   -24952.795   -25978.767   -41.376107   -23.994662    197.43257   -297.56623    41.323783    41.323783    82.647566 
   38500    997.74693   -24952.723   -25984.345   -191.64604   -443.14525   -71.728031   -60.064854    41.321766    41.321766    82.643532 
   38600    1004.4205   -24952.597   -25991.119    41.254354    255.47501    469.06467   -600.77662    41.319361    41.319361    82.638723 
   38700    991.28516   -24952.527   -25977.468    348.52912    132.20625   -83.744103     997.1252    41.316957    41.316957    82.633914 
   38800    1011.6305   -24952.366   -25998.344   -107.51831   -296.24936   -460.56869    434.26312    41.316134    41.316134    82.632268 
   38900    1000.0838   -24952.312   -25986.351    106.06005    112.98493   -372.71695    577.91217    41.315711    41.315711    82.631422 
   39000     995.6407    -24952.27   -25981.714    344.33399     764.2646   -332.25933    600.99669    41.316211    41.316211    82.632422 
   39100    998.27579   -24952.223   -25984.392     120.6594     135.3369    316.75772   -90.116404     41.31802     41.31802    82.636039 
   39200    999.13053   -24952.203   -25985.256   -78.955684    129.83655    43.500867   -410.20446    41.320336    41.320336    82.640672 
   39300    1009.5397   -24952.112   -25995.927   -370.74598   -450.21878    -391.6542   -270.36497    41.322948    41.322948    82.645896 
   39400    1010.3989   -24952.001   -25996.705   -586.95152   -321.47445   -681.33092   -758.04919    41.324991    41.324991    82.649982 
   39500     995.2708   -24951.988    -25981.05    -64.67876   -662.67666    158.79461    309.84576     41.32491     41.32491     82.64982 
   39600    1007.6661   -24951.926   -25993.804   -367.04435   -802.06767   -256.07259   -42.992792    41.324039    41.324039    82.648078 
   39700    1002.8021   -24951.831    -25988.68   -146.41796   -796.98717    176.11637    181.61692    41.322244    41.322244    82.644488 
   39800    997.44617   -24951.756   -25983.068    62.607387   -414.51271    693.99855   -91.663671    41.319843    41.319843    82.639685 
   39900    995.73674   -24951.739   -25981.283    146.55026    324.17476   -191.29498    306.77099    41.317314    41.317314    82.634629 
   40000    1014.9209   -24951.659   -26001.038   -153.31904   -262.34373    132.31477   -329.92817    41.315728    41.315728    82.631457 
   40100    996.17169   -24951.619   -25981.612    264.59516    413.87465   -69.008172    448.91901    41.314741    41.314741    82.629482 
   40200    1012.0788   -24951.539    -25997.98   -139.85612   -322.64642    74.330236   -171.25216    41.315215    41.315215     82.63043 
   40300    995.93206   -24951.577   -25981.323    259.38386    345.46822     173.4976    259.18576    41.316064    41.316064    82.632129 
   40400    1016.3833   -24951.596   -26002.487   -371.49743   -759.80649    -46.87604   -307.80976     41.31814     41.31814     82.63628 
   40500    1007.0518   -24951.653   -25992.896   -276.81433    100.56089    -136.6587   -794.34517    41.320296    41.320296    82.640592 
   40600    986.78198   -24951.707   -25971.992    194.02646    144.88884    498.65656   -61.466018    41.322025    41.322025    82.644049 
   40700    1003.1165   -24951.691   -25988.866   -389.46639   -344.37654   -357.29036   -466.73226    41.323421    41.323421    82.646842 
   40800    997.25539    -24951.64   -25982.754    -25.62231   -244.72207   -267.53977    435.39491    41.323568    41.323568    82.647136 
   40900    1002.1144   -24951.623   -25987.762   -146.68366   -323.36477   -187.63068     70.94447    41.322448    41.322448    82.644896 
   41000    994.80657   -24951.624   -25980.206    74.406814   -347.46282    568.37386    2.3094016    41.320603    41.320603    82.641206 
   41100    1003.6061   -24951.577   -25989.258   -29.220969   -81.083781   -96.643631    90.064507    41.318838    41.318838    82.637676 
   41200    1010.3226   -24951.536   -25996.161   -186.61379    29.723185    -297.4193   -292.14527    41.317164    41.317164    82.634329 
   41300    1003.4674   -24951.532   -25989.069    161.22663    771.14043   -3.8610702   -283.59946    41.315667    41.315667    82.631334 
   41400    1027.9559   -24951.521   -26014.378   -577.93706   -777.72208   -300.15527   -655.93383    41.315507    41.315507    82.631013 
   41500    984.91554   -24951.538   -25969.893    602.66151    672.74371      933.919    201.32183    41.316099    41.316099    82.632197 
   41600     989.0628    -24951.57   -25974.214    379.79837    371.50854    124.45958      643.427    41.317766    41.317766    82.635533 
   41700    995.16322   -24951.607   -25980.558    208.81268   -165.35226    585.66692    206.12338    41.320119    41.320119    82.640239 
   41800    999.03655   -24951.676   -25984.632   -87.270116   -262.74016   -171.85201    172.78183    41.322434    41.322434    82.644868 
   41900     996.5406   -24951.811   -25982.186   -116.33063    78.574747   -30.776271   -396.79036    41.323463    41.323463    82.646926 
   42000    999.54379   -24951.933   -25985.413   -128.11141    -380.0538    281.10096    -285.3814    41.323414    41.323414    82.646828 
   42100    994.87023   -24952.065   -25980.713   -56.166897   -741.81701    617.30155   -43.985226    41.322207    41.322207    82.644414 
   42200    996.98053   -24952.189   -25983.019    93.936024   -82.298853    820.68469   -456.57776    41.320148    41.320148    82.640295 
   42300    999.12403   -24952.288   -25985.334    40.938189    723.27982   -139.05111   -461.41414    41.317998    41.317998    82.635996 
   42400    993.25117    -24952.33   -25979.304    223.38666   -264.45073    665.33867    269.27203    41.316549    41.316549    82.633099 
   42500    996.56287   -24952.286   -25982.684    222.42868    183.13312    490.26311   -6.1101747    41.316349    41.316349    82.632698 
   42600    1013.6433   -24952.217   -26000.275   -122.64035    403.54706    14.683558   -786.15168    41.317107    41.317107    82.634214 
   42700    1019.3311   -24952.138   -26006.077   -413.80435   -814.33223    159.82656   -586.90737    41.318622    41.318622    82.637245 
   42800     992.6747   -24952.131   -25978.509    209.35037    252.10809    788.31494   -412.37191    41.319812    41.319812    82.639624 
   42900    993.51211   -24952.174   -25979.418    125.59233   -171.01842    1065.1448   -517.34943    41.320435    41.320435    82.640871 
   43000       1005.1   -24952.227   -25991.452   -221.83304    36.900794   -326.50242   -375.89748    41.320482    41.320482    82.640964 
   43100    998.20025    -24952.33   -25984.421    19.356177   -610.04138    684.87485   -16.764938    41.319679    41.319679    82.639358 
   43200    1002.9995   -24952.438   -25989.491   -7.5613106    440.33067   -208.02885   -254.98575     41.31892     41.31892    82.637841 
   43300     1009.416   -24952.584   -25996.271   -226.41356    32.861084   -275.97311   -436.12867    41.318286    41.318286    82.636572 
   43400    996.93496   -24952.713   -25983.495    139.03836    90.548696    662.48537   -335.91899    41.317784    41.317784    82.635567 
   43500    1007.9394   -24952.778   -25994.939   -114.62888   -304.83607    46.509583   -85.560154    41.318079    41.318079    82.636158 
   43600    986.21934   -24952.887   -25972.591     391.5102    373.66702    311.68201    489.18156    41.318327    41.318327    82.636654 
   43700    993.06552   -24953.031   -25979.813    242.12247    435.98787    643.02708   -352.64753    41.318645    41.318645    82.637289 
   43800    1001.7011   -24953.151   -25988.862   -33.057503   -200.36852    175.39446   -74.198453    41.319424    41.319424    82.638848 
   43900    1002.1164   -24953.275   -25989.415   -192.19215    621.04617   -369.77916   -827.84345    41.320215    41.320215     82.64043 
   44000    1003.1155   -24953.434   -25990.607   -107.86802    206.90625   -482.51647   -47.993848    41.320308    41.320308    82.640616 
   44100    992.08844   -24953.547   -25979.319     113.6854    151.69122    17.444843    171.92014    41.320309    41.320309    82.640618 
   44200    987.29849   -24953.635   -25974.454    304.50295    289.12835    277.56221     346.8183    41.319824    41.319824    82.639647 
   44300    1003.8896   -24953.636   -25991.609   -133.50435    137.99799   -855.22607    316.71502    41.319638    41.319638    82.639276 
   44400     1001.923   -24953.652   -25989.592   -70.600325   -59.442295   -88.295576   -64.063105    41.319189    41.319189    82.638378 
   44500    998.51035   -24953.673   -25986.085    15.137641    -41.88579    31.114617    56.184095    41.318618    41.318618    82.637235 
   44600    1006.1148   -24953.653   -25993.927   -30.064913    69.558586   -78.095653   -81.657671    41.318608    41.318608    82.637217 
   44700    1004.2945   -24953.604   -25991.996   -33.801283    255.52259   -212.66746   -144.25898    41.319257    41.319257    82.638514 
   44800    996.70956   -24953.618   -25984.168   -12.446516    252.34817    109.18477   -398.87248    41.319617    41.319617    82.639234 
   44900    986.38221   -24953.638    -25973.51    261.29557    300.04713    112.11898     371.7206    41.319564    41.319564    82.639128 
   45000    1011.7008   -24953.536   -25999.586   -409.28081   -337.17704    -1143.595    252.92965      41.3201      41.3201    82.640201 
   45100    999.51416   -24953.453   -25986.903   -27.449234   -154.70566   -122.19585    194.55381    41.320053    41.320053    82.640106 
   45200    1001.0572   -24953.344   -25988.389   -100.20062   -391.83322   -24.495889    115.72725    41.319834    41.319834    82.639668 
   45300    987.62505   -24953.284    -25974.44     353.4893     756.5276    186.28594    117.65435    41.319254    41.319254    82.638509 
   45400    1003.7719   -24953.188    -25991.04   -172.73319   -208.03317    22.145491   -332.31188    41.319156    41.319156    82.638311 
   45500    989.46057   -24953.069   -25976.124    209.85187    451.27682   -13.668657    191.94746    41.319229    41.319229    82.638458 
   45600    1006.4573   -24952.879   -25993.508   -240.51406    204.97748   -453.78956   -472.73009    41.319921    41.319921    82.639842 
   45700    1006.8835   -24952.744   -25993.813   -283.75161    -344.9436   -540.19324    33.882014     41.32012     41.32012    82.640241 
   45800    1003.9514   -24952.644   -25990.681   -84.572749    45.884918   -97.406686   -202.19648     41.31973     41.31973     82.63946 
   45900    1002.2008   -24952.577   -25988.805   -166.78152   -79.239839    378.25201   -799.35674    41.318953    41.318953    82.637905 
   46000    997.20165   -24952.517   -25983.576    148.52535    8.5362271    260.74383      176.296     41.31792     41.31792     82.63584 
   46100    991.34529   -24952.434   -25977.437    167.90645    360.24684    660.39527   -516.92276    41.317329    41.317329    82.634657 
   46200    999.63213   -24952.325   -25985.896    129.57246    136.08237   -53.839257    306.47427    41.317127    41.317127    82.634254 
   46300    1002.7937   -24952.264   -25989.104    8.8615915    593.91642   -144.70906   -422.62259    41.317078    41.317078    82.634156 
   46400    1012.9036   -24952.197    -25999.49   -258.53546   -237.55264     -534.212   -3.8417365    41.317472    41.317472    82.634944 
   46500    993.86879   -24952.114   -25979.726    158.57925     335.1769    382.89849   -242.33764    41.318385    41.318385    82.636771 
   46600    1008.1616   -24952.049   -25994.439   -103.50369    235.54803   -112.46781    -433.5913    41.319528    41.319528    82.639057 
   46700    1001.9797    -24952.07   -25988.069   -29.033253   -100.18627    367.13806   -354.05156    41.320293    41.320293    82.640586 
   46800    1005.4525   -24952.192   -25991.781   -173.93174   -326.84762   -29.865184   -165.08242    41.320182    41.320182    82.640364 
   46900    1001.4488   -24952.305   -25987.755   -109.70534    93.892784   -258.29457   -164.71423    41.319715    41.319715    82.639429 
   47000    999.18173   -24952.408   -25985.513    73.269423    518.13361   -133.94847   -164.37687    41.319462    41.319462    82.638925 
   47100    1002.7948   -24952.466   -25989.308   -85.993411    -563.2196     98.23588    207.00349    41.319956    41.319956    82.639912 
   47200    999.92096   -24952.483   -25986.354    76.102772    230.46265    48.980169   -51.134502    41.320666    41.320666    82.641332 
   47300    1019.4873   -24952.524   -26006.625   -491.59614   -783.53576   -658.25146   -33.001209    41.321178    41.321178    82.642356 
   47400    993.11559    -24952.69   -25979.523    27.326557   -334.93079    215.44643    201.46403    41.320403    41.320403    82.640805 
   47500    998.44923   -24952.735   -25985.083    6.5227847    132.39978    45.466419   -158.29784    41.319754    41.319754    82.639507 
   47600    1010.6136    -24952.76   -25997.686   -325.42305   -350.90614   -492.03839    -133.3246    41.319171    41.319171    82.638342 
   47700    997.62398   -24952.832   -25984.327    164.84484    578.37461   -11.770388   -72.069708    41.318078    41.318078    82.636156 
   47800    1004.8482   -24952.842   -25991.807   -110.98002    104.69416   -164.23675   -273.39749    41.317664    41.317664    82.635328 
   47900    999.63766   -24952.861   -25986.438     55.72188   -169.17193   -114.16898    450.50655    41.317358    41.317358    82.634717 
   48000    993.55507   -24952.889   -25980.177    168.79806    515.30803   -14.893217    5.9793701    41.317333    41.317333    82.634666 
   48100     994.0972    -24952.88   -25980.729    242.89058    346.87927    241.68945    140.10301      41.3178      41.3178    82.635601 
   48200    1006.4807    -24952.82   -25993.473   -196.00348   -562.17488   -60.535032     34.69949    41.318833    41.318833    82.637667 
   48300    992.60881   -24952.769   -25979.079    72.426074    20.427554    74.426594    122.42408    41.319692    41.319692    82.639385 
   48400    1001.1623   -24952.788   -25987.942   -76.798018    336.23668   -548.87077   -17.759962    41.320033    41.320033    82.640066 
   48500    993.75988   -24952.823   -25980.323    93.036971    107.81334    239.71652    -68.41895    41.319993    41.319993    82.639985 
   48600    1001.7582   -24952.855   -25988.625   -62.973954    69.965792   -316.97328    58.085629    41.319604    41.319604    82.639208 
   48700    1000.0377   -24952.922   -25986.913    64.484588    813.79939   -504.19699   -116.14864    41.318709    41.318709    82.637418 
   48800    1011.1811   -24952.947    -25998.46   -259.00723   -73.228403   -539.59241   -164.20088    41.318197    41.318197    82.636394 
   48900    992.50487   -24953.093   -25979.295    398.80174    734.98284   -138.95634    600.37872    41.317065    41.317065     82.63413 
   49000    991.44921   -24953.175   -25978.286    294.55938    350.79148   0.69636731     532.1903     41.31696     41.31696     82.63392 
   49100    1003.5332   -24953.176   -25990.781   -74.109322    296.37643   -127.03977   -391.66462    41.317948    41.317948    82.635895 
   49200    993.87607   -24953.193   -25980.813    147.68726    143.14892    171.35655    128.55632    41.318998    41.318998    82.637997 
   49300    988.83828   -24953.217   -25975.629    244.42707    26.557981    534.22376    172.49948    41.319922    41.319922    82.639845 
   49400    998.55312   -24953.214    -25985.67   -158.20169   -311.28544    304.60114   -467.92077    41.320709    41.320709    82.641419 
   49500      996.127   -24953.226   -25983.173   -69.023444    326.85279    134.91604   -668.83916    41.320762    41.320762    82.641524 
   49600    994.38598   -24953.209   -25981.356     43.74713    34.696095    11.677268    84.868028    41.320361    41.320361    82.640722 
   49700    994.01197   -24953.125   -25980.885    79.629871   -353.74629    266.70926    325.92665    41.320079    41.320079    82.640158 
   49800    999.27255    -24953.06   -25986.259   -59.161037   -445.30313    428.78888   -160.96886    41.319424    41.319424    82.638848 
   49900    1002.3478    -24953.03    -25989.41   -83.619462    773.80861   -528.13494   -496.53205    41.318298    41.318298    82.636596 
   50000    1006.7764   -24953.014   -25993.972   -14.522764    98.111268   -226.25741    84.577848    41.317015    41.317015    82.634031 
Loop time of 1478.1 on 1 procs for 50000 steps with 8000 atoms

Pair  time (%) = 1335.19 (90.3317)
Neigh time (%) = 101.684 (6.87939)
Comm  time (%) = 8.69761 (0.588431)
Outpt time (%) = 0.653752 (0.0442292)
Other time (%) = 31.872 (2.15628)

Nlocal:    8000 ave 8000 max 8000 min
Histogram: 1 0 0 0 0 0 0 0 0 0
Nghost:    9111 ave 9111 max 9111 min
Histogram: 1 0 0 0 0 0 0 0 0 0
Neighs:    293475 ave 293475 max 293475 min
Histogram: 1 0 0 0 0 0 0 0 0 0

Total # of neighbors = 293475
Ave neighs/atom = 36.6844
Neighbor list builds = 5000
Dangerous builds = 0
unfix		1

# Melt half the system
region  liquid block INF INF INF INF INF ${nzhalf}
region  liquid block INF INF INF INF INF 10
group	liquid_group region liquid
3991 atoms in group liquid_group

# Heat up one side to Tmelt to make sure it is melted
fix 2 liquid_group npt temp ${Tmelt} ${Tmelt} 1 z 0 0 10 drag 1.0
fix 2 liquid_group npt temp 2000 ${Tmelt} 1 z 0 0 10 drag 1.0
fix 2 liquid_group npt temp 2000 2000 1 z 0 0 10 drag 1.0
run		${eqsteps}
run		50000
Memory usage per processor = 5.95825 Mbytes
Step Temp TotEng PotEng Press Pxx Pyy Pzz Lx Ly Lz 
   50000    1006.7764   -24953.014   -25993.972   -14.522764    98.111268   -226.25741    84.577848    41.317015    41.317015    82.634031 
   50100    1003.4762    -24950.59   -25988.136    129.79469   -234.46375    228.80992    395.03789    41.317015    41.317015    82.634091 
   50200    1014.2285   -24944.871   -25993.534    134.64561    167.75001    194.89763    41.289182    41.317015    41.317015    82.634247 
   50300     1014.921   -24939.112   -25988.492    310.25429   -314.04367    642.88447    601.92207    41.317015    41.317015    82.634508 
   50400    1014.3658   -24933.626   -25982.432     421.7569   -58.944964    704.24659    619.96906    41.317015    41.317015    82.634994 
   50500    1019.6594   -24927.601    -25981.88    513.22085     251.9225    567.55185    720.18821    41.317015    41.317015    82.635795 
   50600    1013.9741   -24921.114   -25969.514    952.44631    659.51243    960.23589    1237.5906    41.317015    41.317015    82.636947 
   50700    1019.1377    -24914.51   -25968.249     875.2235    775.70578    661.65662    1188.3081    41.317015    41.317015    82.638564 
   50800    1028.3836   -24907.765   -25971.064    905.89545    517.40566    806.69037    1393.5903    41.317015    41.317015    82.640746 
   50900      1038.47   -24900.913   -25974.641    879.38621    607.07183    564.39602    1466.6908    41.317015    41.317015    82.643502 
   51000    1035.6012   -24893.971   -25964.733    1149.2414    1354.8762    996.27519    1096.5728    41.317015    41.317015    82.646894 
   51100    1033.7917   -24887.022   -25955.912    1306.7561    973.14918    1217.2666    1729.8525    41.317015    41.317015    82.650818 
   51200    1045.0892   -24879.997   -25960.569    1302.6359    1058.3626    1053.9885    1795.5564    41.317015    41.317015    82.655461 
   51300    1036.1599   -24872.917   -25944.257    1633.8795    1625.5258    1574.2114    1701.9014    41.317015    41.317015    82.660885 
   51400    1052.5559   -24865.786   -25954.078    1428.2611    1573.9793      1400.04     1310.764    41.317015    41.317015      82.6671 
   51500    1048.7206   -24858.611   -25942.938    1628.6298    1738.2559    1681.6128    1466.0208    41.317015    41.317015     82.67401 
   51600    1050.7765   -24851.406   -25937.858    1859.2969    1576.3207    2160.0845    1841.4854    41.317015    41.317015    82.681591 
   51700    1058.4607    -24844.21   -25938.607    1729.1325    1721.7024    1933.3271    1532.3682    41.317015    41.317015    82.689885 
   51800    1064.8424   -24836.934    -25937.93    1779.3562    1351.4726    2221.2644    1765.3317    41.317015    41.317015    82.698994 
   51900    1065.3452   -24829.631   -25931.147    1755.9032    1501.2258    1955.6685    1810.8154    41.317015    41.317015    82.708977 
   52000     1069.072   -24822.328   -25927.697    2003.8186    1892.8329    2204.5616    1914.0614    41.317015    41.317015    82.719812 
   52100    1071.6251    -24814.94   -25922.949    2060.8268    1718.1434    2282.5015    2181.8355    41.317015    41.317015     82.73147 
   52200    1067.0063   -24807.585   -25910.818    2329.4582    1829.6274    2608.5026    2550.2445    41.317015    41.317015    82.744012 
   52300    1065.4448    -24800.23   -25901.848    2514.6364    2334.8654     2905.653    2303.3909    41.317015    41.317015    82.757495 
   52400    1075.8196   -24792.737   -25905.083    2337.8727    1727.2201    2581.0273    2705.3706    41.317015    41.317015    82.771803 
   52500    1072.8021   -24785.294    -25894.52    2410.1387     2142.646    2796.6506    2291.1196    41.317015    41.317015    82.787046 
   52600    1083.8391   -24777.863   -25898.501    2379.5938     2360.094    2675.7198    2102.9676    41.317015    41.317015    82.803179 
   52700    1076.8762   -24770.328   -25883.766    2495.5341      2390.18    2370.7545     2725.668    41.317015    41.317015    82.820067 
   52800    1088.5999   -24762.815   -25888.375    2461.9225    2316.2039    2595.8097    2473.7538    41.317015    41.317015    82.837776 
   52900    1102.0886   -24755.257   -25894.764    2093.5055    1943.3512    2368.9269    1968.2384    41.317015    41.317015    82.856351 
   53000    1099.5703   -24747.672   -25884.575    2318.1557    2738.5022    2134.0945    2081.8703    41.317015    41.317015    82.875739 
   53100    1102.6529   -24740.075   -25880.165    2355.4305    1891.8465    2493.1182    2681.3269    41.317015    41.317015    82.895973 
   53200    1092.6452   -24732.452   -25862.194    2628.2117    2638.0317    2847.3369    2399.2666    41.317015    41.317015    82.917189 
   53300    1110.2912   -24724.816   -25872.804      2227.02     2329.221     1985.901    2365.9379    41.317015    41.317015    82.939267 
   53400    1110.0712   -24717.116   -25864.876    2362.5309    2289.7688    2420.3034    2377.5206    41.317015    41.317015    82.962261 
   53500    1099.9388   -24709.417   -25846.701    2677.9098    2523.2282     2641.374    2869.1271    41.317015    41.317015    82.986041 
   53600    1118.2108   -24701.766   -25857.942    2126.8967    2078.9626    1972.4025     2329.325    41.317015    41.317015     83.01066 
   53700    1126.8252    -24694.03   -25859.113    2053.5924     1884.762    2627.5212     1648.494    41.317015    41.317015    83.035967 
   53800    1114.9268   -24686.265   -25839.045    2399.0884    2151.8572    2950.8001     2094.608    41.317015    41.317015    83.061717 
   53900     1126.235   -24678.448   -25842.921    2150.4631    2535.9991    2001.0084    1914.3819    41.317015    41.317015    83.087855 
   54000    1126.4584   -24670.632   -25835.336    2209.9805    2688.5579     1913.695    2027.6887    41.317015    41.317015    83.114369 
   54100    1133.4788   -24662.784   -25834.746    1904.5041    2061.0154    1944.4392    1708.0577    41.317015    41.317015    83.141298 
   54200    1126.3685   -24654.987   -25819.597    2113.7471    1981.0622    2042.0807    2318.0984    41.317015    41.317015    83.168526 
   54300    1133.8052   -24647.072   -25819.372    2061.0533     1756.912    2545.2534    1880.9944    41.317015    41.317015    83.196056 
   54400     1137.428   -24639.149   -25815.195    1993.8454    2332.8984    2400.3271    1248.3108    41.317015    41.317015      83.2237 
   54500    1140.0694   -24631.246   -25810.023    1977.7674    2221.2097    2158.1947    1553.8978    41.317015    41.317015     83.25147 
   54600    1146.2654   -24623.306   -25808.489    1867.8487    2151.9955    1911.2867    1540.2639    41.317015    41.317015    83.279338 
   54700    1140.8849    -24615.37    -25794.99    2022.4333    1919.1596    2443.8059    1704.3344    41.317015    41.317015    83.307204 
[...]
  336300    1052.2997   -24785.928   -25873.956    299.74067    902.69975   -298.34521    294.86746    41.387183    41.387183    82.826918 
  336400    1073.1328   -24785.928   -25895.495   -330.02929   -260.54186   -621.82864   -107.71737    41.386952    41.386952    82.830416 
  336500    1062.8511   -24785.933    -25884.87    71.048891    189.30152   -435.28553    459.13068    41.386636    41.386636    82.808174 
  336600    1071.6579   -24785.927    -25893.97   -12.738956    688.69332   -584.05778    -142.8524    41.386384    41.386384     82.80549 
  336700    1059.8446   -24785.931   -25881.759    181.81787    0.3779157   -295.72194    840.79762    41.386203    41.386203    82.819861 
  336800    1074.5199   -24785.953   -25896.954   -603.47365   -778.90279   -584.01604   -447.50211     41.38594     41.38594    82.875337 
  336900    1049.3171   -24785.933   -25870.876   -70.578129   -31.818161    94.437681   -274.35391    41.385523    41.385523    82.894353 
  337000    1059.2309   -24785.954   -25881.148   -171.39839    912.91915   -1339.4204    -87.69387    41.385009    41.385009    82.858156 
  337100    1066.7523   -24785.949   -25888.919    105.88455    424.17108   -52.775806   -53.741634    41.384458    41.384458    82.810991 
  337200     1054.502   -24785.941   -25876.245    691.51694    656.43764    862.71916    555.39401     41.38406     41.38406    82.782534 
  337300    1085.5264   -24785.957   -25908.339   -239.98004   -399.12764   -68.662837   -252.14963     41.38395     41.38395    82.796561 
  337400    1060.8743   -24785.947    -25882.84    90.828544     370.9805    334.45483   -432.94969    41.383956    41.383956    82.831928 
  337500     1060.691   -24785.947    -25882.65    5.3448382    163.22244   -21.223465   -125.96446     41.38404     41.38404    82.854568 
  337600    1064.3079   -24785.952   -25886.395   -276.64677   -567.38344   -413.07398    150.51711    41.384102    41.384102    82.870255 
  337700    1052.1556   -24785.944   -25873.822    92.379334    521.23573   -247.31501    3.2172855    41.383971    41.383971    82.890486 
  337800    1059.2648   -24785.954   -25881.183   -321.10503   -61.129031    -281.3414   -620.84467    41.383713    41.383713    82.882378 
  337900     1067.124   -24785.973   -25889.328    188.60842    326.59646   -135.15157    374.38036    41.383353    41.383353    82.826998 
  338000    1068.8233   -24785.966   -25891.078    456.71043    778.08446    5.7474169    586.29943    41.383027    41.383027    82.776977 
  338100    1063.5872   -24786.004   -25885.702    215.84835    207.90804     39.25361    400.38339    41.382842    41.382842    82.818058 
  338200    1058.4693   -24786.053   -25880.459   -403.88117   -1210.1557     -672.882     671.3942    41.382629    41.382629    82.921107 
  338300    1075.6514   -24786.004   -25898.176   -1608.1342   -1373.6744   -1641.7921   -1808.9362    41.382051    41.382051    83.021846 
  338400    1057.4884   -24786.049   -25879.441   -877.45927   -437.33024   -621.67578   -1573.3718    41.380962    41.380962    82.987401 
  338500    1065.6111   -24786.128   -25887.918    75.365413   -219.91938     35.13167    410.88395    41.379649    41.379649    82.851645 
  338600    1061.6398   -24786.061   -25883.745    659.13592    605.28479    556.31211    815.81086    41.378512    41.378512    82.769711 
  338700    1069.1484   -24786.072    -25891.52    581.98388     70.20791    1128.6695    547.07423    41.377804    41.377804     82.78338 
  338800    1063.3468   -24786.083   -25885.532    47.124459   -69.446491    174.97876    35.841114    41.377498    41.377498    82.856462 
  338900    1059.5051   -24786.077   -25881.554   -274.38902    -81.92537    104.93057   -846.17225    41.377255    41.377255    82.911158 
  339000    1071.2484   -24786.082   -25893.701   -426.42574   -634.07425   -202.45085   -442.75211    41.377023    41.377023    82.903961 
  339100    1060.3073   -24786.115   -25882.422    248.94775    436.53999    912.49086    -602.1876    41.376708    41.376708    82.845876 
  339200    1068.3714    -24786.09   -25890.735    557.39285     39.34882    780.82972          852    41.376628    41.376628    82.785147 
  339300    1077.1072   -24786.107   -25899.784    189.69804    59.947818    333.16059    175.98572    41.376745    41.376745    82.808769 
  339400    1072.4073     -24786.1   -25894.918   -91.220432   -261.24432    597.55815   -609.97512    41.377043    41.377043    82.856463 
  339500    1052.7083   -24786.101   -25874.551    335.32408    291.94861    686.63248    27.391162    41.377398    41.377398    82.885053 
  339600    1065.4101   -24786.101   -25887.684   -279.21986   -593.92562    209.94178   -453.67573    41.377738    41.377738    82.890446 
  339700    1069.7942   -24786.107   -25892.223    72.704684    627.52131   -414.71421    5.3069504    41.378044    41.378044    82.850689 
  339800    1077.2263   -24786.107   -25899.908     25.45434    306.70302   -31.273517   -199.06648    41.378348    41.378348    82.825069 
  339900    1067.7209    -24786.11   -25890.082    241.23106    401.70977    341.82877   -19.845349    41.378732    41.378732    82.835097 
  340000    1055.6976     -24786.1   -25877.641    166.18439    353.71739   -281.83866    426.67445    41.379201    41.379201    82.854456 
  340100    1057.7567   -24786.121   -25879.791   -222.69776   -673.22857   -491.12193    496.25721    41.379495    41.379495    82.893732 
  340200    1058.4889   -24786.117   -25880.543   -623.93535   -517.39466   -807.70855   -546.70284    41.379511    41.379511    82.948844 
  340300    1057.1566   -24786.111    -25879.16    -568.3129    -1119.929   -422.42625   -162.58348    41.379153    41.379153    82.960492 
  340400     1056.174   -24786.129   -25878.163   -219.47075   -210.62927   -575.03015    127.24718    41.378425    41.378425    82.924797 
  340500    1068.9761   -24786.124   -25891.394   -295.64281   -593.21314       -146.9   -146.81529     41.37756     41.37756    82.883518 
  340600    1057.6393   -24786.126   -25879.674    291.88163     549.1105    48.136564    278.39783     41.37673     41.37673    82.847215 
  340700    1060.1851   -24786.124   -25882.304    399.19162     818.2845    171.88294    207.40742    41.376087    41.376087    82.824606 
  340800    1072.9535   -24786.125   -25895.507    175.30638    330.83114    97.018047    98.069958    41.375728    41.375728    82.820973 
  340900    1059.9361   -24786.126   -25882.049    523.24811    1046.6086    35.653598    487.48208    41.375569    41.375569    82.832443 
  341000    1074.7966   -24786.143   -25897.431   -291.20964    76.620122   -530.73298   -419.51607     41.37558     41.37558     82.87568 
  341100    1065.7595   -24786.129   -25888.073   -322.44497    -341.1151   -334.07653   -292.14329    41.375552    41.375552    82.907573 
  341200    1063.1969   -24786.125   -25885.419   -271.97724   -325.27374    208.73752   -699.39551    41.375406    41.375406    82.911675 
  341300    1080.6939   -24786.141   -25903.526   -429.33816   -440.96503   -778.11045   -68.938997    41.375219    41.375219     82.87343 
  341400    1067.4497   -24786.136   -25889.828    428.80356    360.93817    657.63307    267.83943    41.375098    41.375098    82.831091 
  341500    1079.7701    -24786.14    -25902.57    152.08973    20.572776    582.19872   -146.50231    41.375238    41.375238    82.821502 
  341600    1064.7831   -24786.141   -25887.076     246.4395   -111.61041    363.13243    487.79647    41.375577    41.375577    82.832071 
  341700    1048.9474   -24786.138   -25870.699    510.66944    76.069447      688.177    767.76187    41.376032    41.376032    82.867026 
  341800    1061.7212    -24786.16   -25883.929   -412.51932   -442.84085   -200.32754   -594.38958     41.37638     41.37638    82.927661 
  341900    1053.3517   -24786.141   -25875.256   -397.31757   -617.40098   -103.45686   -471.09487    41.376415    41.376415    82.952741 
  342000    1080.0295   -24786.215   -25902.913   -530.21311   -152.48702   -647.91076   -790.24156    41.376259    41.376259    82.889521 
  342100    1064.6482   -24786.173   -25886.968    714.92325    495.47663     513.3757    1135.9174     41.37615     41.37615    82.799646 
  342200    1060.7233   -24786.166   -25882.902    618.63988    673.65081    492.15563    690.11319    41.376259    41.376259    82.802029 
  342300    1052.1661    -24786.19   -25874.079    325.59597    138.56568    316.88959    521.33265    41.376532    41.376532    82.860165 
  342400    1070.2751   -24786.187     -25892.8   -642.20969   -295.80789   -299.49278   -1331.3284    41.376818    41.376818    82.934768 
  342500    1054.3058   -24786.176   -25876.277    -307.2776   -195.24761   -310.43785   -416.14735    41.376868    41.376868    82.941499 
  342600    1063.1643     -24786.2   -25885.461   -245.18927    42.940978   -233.40779   -545.10099    41.376737    41.376737    82.907848 
  342700    1056.5236    -24786.24   -25878.635     348.2767      582.652    239.90008    222.27801    41.376597    41.376597    82.828664 
  342800    1071.3783   -24786.202   -25893.956    648.12762     767.6672    56.014634     1120.701    41.376635    41.376635    82.780145 
  342900    1065.6661   -24786.251   -25888.098    163.15666    538.78402    3.2671646     -52.5812    41.376887    41.376887    82.844983 
  343000    1053.0713    -24786.22   -25875.045   -95.518149    488.86428    -157.6214   -617.79732    41.377218    41.377218    82.916982 
  343100    1082.4149   -24786.223   -25905.388   -834.81931   -742.46313   -1043.9289   -718.06593    41.377417    41.377417    82.918233 
  343200    1067.7839   -24786.227   -25890.264   -32.030164   -335.35115    271.07507   -31.814412    41.377359    41.377359     82.87674 
  343300    1057.9222   -24786.223   -25880.063    415.87049     894.2913    264.53577      88.7844     41.37736     41.37736    82.833741 
  343400    1073.4049   -24786.228   -25896.077    230.61877    647.64955   -280.12225    324.32902    41.377589    41.377589    82.805554 
  343500    1060.2556   -24786.223   -25882.476     674.8638    1101.4726    168.51231    754.60646    41.378024    41.378024     82.80695 
  343600    1060.5549   -24786.224   -25882.787    517.57549    975.26579    514.17887    63.281816    41.378675    41.378675    82.820508 
  343700    1057.3583   -24786.225   -25879.482    556.07172    808.09752    533.56745    326.55019    41.379505    41.379505     82.81939 
  343800    1063.4753   -24786.234   -25885.816    119.08652    833.78378   -149.98189   -326.54234    41.380399    41.380399    82.847338 
  343900    1081.6264   -24786.234   -25904.584   -633.62023   -516.60652      -753.04   -631.21416    41.381196    41.381196    82.869305 
  344000    1054.2637    -24786.23   -25876.288   -69.436578    -977.7237    81.317641    688.09633    41.381692    41.381692    82.876415 
  344100    1060.3145   -24786.233   -25882.547   -491.54908   -397.01114   -674.60553   -403.03056    41.381882    41.381882    82.920758 
  344200    1070.3693   -24786.239   -25892.949   -709.89829   -953.78493   -864.09458   -311.81537    41.381781    41.381781    82.922561 
  344300    1062.9022   -24786.263   -25885.253   -197.83848    555.60737   -324.94204   -824.18076     41.38142     41.38142    82.880036 
  344400    1068.2116   -24786.272   -25890.752    403.21152     740.2973   -56.141208    525.47847    41.381109    41.381109    82.793205 
  344500    1063.0637   -24786.253    -25885.41    631.70003    689.94251    677.70805    527.44952    41.381061    41.381061    82.774921 
  344600    1071.1188   -24786.261   -25893.746    68.251122   -540.65354    650.95594    94.450973    41.381291    41.381291    82.815845 
  344700    1073.4058   -24786.276   -25896.126   -445.76632   -172.39715   -553.12131    -611.7805    41.381575    41.381575     82.87109 
  344800     1052.708   -24786.249   -25874.699   -47.808213    140.46797    85.805307   -369.69791    41.381754    41.381754    82.900771 
  344900     1064.768    -24786.27   -25887.189   -74.013613   -610.31953    235.36257    152.91612    41.381793    41.381793    82.870842 
  345000    1061.7144   -24786.259   -25884.021   -27.279627    248.99174   -629.32414    298.49352    41.381691    41.381691    82.853743 
  345100    1061.9029   -24786.262   -25884.218   -80.084074    -140.6664   -284.04926    184.46344    41.381514    41.381514    82.866851 
  345200    1073.7629   -24786.266   -25896.485   -417.83604   -422.62997     47.94653   -878.82469    41.381332    41.381332    82.869417 
  345300    1052.3976   -24786.274   -25874.402     419.2802    447.99841    531.85592    277.98627    41.381135    41.381135    82.822882 
  345400    1068.5756   -24786.271   -25891.127    357.45266    60.293035    407.39062    604.67433    41.381112    41.381112    82.783174 
  345500    1062.4001    -24786.27    -25884.74    682.57767    1280.5734    134.51267     632.6469    41.381326    41.381326    82.784581 
  345600    1077.6927   -24786.295   -25900.577   -196.25341    315.84197   -421.59089    -483.0113    41.381786    41.381786    82.833445 
  345700    1060.6723   -24786.277   -25882.961    72.661175     72.51566     279.4055   -133.93764    41.382257    41.382257    82.858014 
  345800    1062.8985   -24786.275   -25885.261   -42.080178   -224.97351   -121.16923     219.9022    41.382667    41.382667    82.867886 
  345900    1072.7592   -24786.278    -25895.46   -549.49675   -410.46221   -1111.6175   -126.41059    41.382858    41.382858    82.885309 
  346000    1067.7487   -24786.278   -25890.279   -394.48411   -306.75121   -171.76266   -704.93846    41.382835    41.382835    82.880371 
  346100    1053.5076    -24786.28   -25875.556    347.50952    220.19687    619.67359     202.6581    41.382724    41.382724    82.830757 
  346200    1068.8514     -24786.3    -25891.44    450.06663    992.81227    634.26203   -276.87443     41.38269     41.38269    82.777494 
  346300    1065.6201   -24786.287   -25888.087    902.14058    1066.8795    827.75058    811.79171    41.382981    41.382981    82.741647 
  346400    1061.3174     -24786.3   -25883.651    611.70723    514.83395    697.79973    622.48801    41.383661    41.383661    82.778759 
  346500    1066.5855    -24786.34   -25889.138   -257.58085   -715.09228    6.1910095   -63.841289    41.384459    41.384459    82.852375 
  346600    1057.8686   -24786.306   -25880.091   -397.15279   -234.41426    133.29728   -1090.3414    41.385044    41.385044    82.920925 
  346700    1058.9936   -24786.339   -25881.288   -350.06794   -652.40816    273.74968   -671.54534    41.385358    41.385358    82.892855 
  346800    1071.7946   -24786.359   -25894.543    152.99117   -42.688405    500.96161   0.70030092    41.385517    41.385517    82.803689 
  346900    1068.3686   -24786.346   -25890.988    719.28446    1076.8546    743.32965    337.66912    41.385782    41.385782    82.725947 
  347000    1062.6397   -24786.343   -25885.062    963.19163    1299.1748     509.7895    1080.6106    41.386359    41.386359    82.714563 
  347100    1063.5264   -24786.394   -25886.029    222.43811    663.53237    242.18487   -238.40291    41.387196    41.387196    82.793861 
  347200    1075.9822   -24786.402   -25898.916   -764.46238   -844.01263   -964.55907   -484.81545    41.388058    41.388058    82.878384 
  347300    1061.9363   -24786.366   -25884.357   -768.58387   -386.25114   -1672.0336   -247.46686    41.388463    41.388463    82.926145 
  347400    1067.0093   -24786.389   -25889.626   -703.63581   -1275.8362   -103.88383    -731.1874    41.388323    41.388323    82.904989 
  347500    1070.0299   -24786.446   -25892.806   -27.876084      266.298   -291.77584   -58.150416    41.387942    41.387942     82.80694 
  347600    1062.9839   -24786.395    -25885.47    781.81121    949.73379    285.67197    1110.0279    41.387682    41.387682    82.732813 
  347700    1057.1579   -24786.397   -25879.448     806.4626    349.08067    1259.6926    810.61447    41.387751    41.387751    82.740947 
  347800    1052.0655    -24786.42   -25874.206    529.46571     1029.977    -96.29346    654.71357    41.388149    41.388149    82.797012 
  347900    1077.7239   -24786.416   -25900.731   -785.01455   -642.24641   -655.71904   -1057.0782    41.388585    41.388585    82.871038 
  348000     1046.987   -24786.408   -25868.942   -96.797954   -224.40787   -7.4255415   -58.560456    41.388733    41.388733    82.874377 
  348100    1076.0012   -24786.437    -25898.97    -367.3031    -228.6939   -406.18194   -467.03345    41.388725    41.388725    82.836025 
  348200    1065.9228   -24786.423   -25888.536    258.49485   -133.33194    428.63198    480.18449    41.388654    41.388654    82.782239 
  348300    1059.4429   -24786.426   -25881.839    380.89174    542.76973     -63.7799    663.68539    41.388643    41.388643    82.783779 
  348400     1065.977   -24786.429   -25888.598    14.106819     371.2652    65.376202   -394.32094    41.388707    41.388707     82.82924 
  348500    1064.6489    -24786.43   -25887.226   -263.57547   -189.08141   -584.33691   -17.308097    41.388774    41.388774    82.856197 
  348600    1062.4448    -24786.42   -25884.937   -393.38705   -826.29502    80.912126   -434.77826    41.388699    41.388699    82.873482 
  348700    1070.8045   -24786.432   -25893.592   -384.89258    -23.58741   -425.49899   -705.59134    41.388476    41.388476    82.854566 
  348800    1070.6702   -24786.438    -25893.46   -49.987302    7.7349633    33.838255   -191.53512    41.388207    41.388207    82.806746 
  348900    1064.2677   -24786.437   -25886.838    589.85988    202.48577     727.2956    839.79828    41.388003    41.388003    82.765394 
  349000    1056.9952   -24786.429   -25879.311    774.21432    1295.8221     912.2171     114.6038    41.388011    41.388011    82.766353 
  349100    1061.4673   -24786.431   -25883.937    380.43692    388.75842    889.43163   -136.87927    41.388344    41.388344    82.788232 
  349200    1065.1688   -24786.432   -25887.766    83.437268    62.782211    523.06544   -335.53585    41.388829    41.388829    82.805356 
  349300    1063.8543   -24786.433   -25886.407    17.465612   -73.990924    573.38407   -446.99631    41.389383    41.389383    82.806436 
  349400    1079.1649   -24786.437   -25902.241   -236.11074   -540.14871   -436.35031    268.16681    41.390014    41.390014    82.794759 
  349500    1068.4205   -24786.443   -25891.139   -128.41744   -318.28563   -22.794621   -44.172071    41.390521    41.390521    82.814122 
  349600    1063.6154   -24786.444   -25886.172   -24.756114     163.8506    510.06629   -748.18524    41.390956    41.390956    82.824984 
  349700    1058.1621    -24786.45   -25880.538    444.09828    435.36126    368.60482    528.32876    41.391486    41.391486    82.777304 
  349800    1077.9281    -24786.45   -25900.976   -47.731462   -194.44108    61.111127   -9.8644365    41.392156    41.392156    82.759239 
  349900    1060.2909    -24786.46    -25882.75    229.95126    109.65813    659.06356   -78.867913    41.392859    41.392859    82.790505 
  350000    1067.9054   -24786.451   -25890.614   -251.98163   -815.71358    -91.23226    151.00095    41.393561    41.393561    82.821583 
Loop time of 5777.19 on 1 procs for 200000 steps with 8000 atoms

Pair  time (%) = 5219.46 (90.3461)
Neigh time (%) = 402.89 (6.97381)
Comm  time (%) = 31.8772 (0.551777)
Outpt time (%) = 2.50356 (0.0433352)
Other time (%) = 120.454 (2.08499)

Nlocal:    8000 ave 8000 max 8000 min
Histogram: 1 0 0 0 0 0 0 0 0 0
Nghost:    8214 ave 8214 max 8214 min
Histogram: 1 0 0 0 0 0 0 0 0 0
Neighs:    291464 ave 291464 max 291464 min
Histogram: 1 0 0 0 0 0 0 0 0 0

Total # of neighbors = 291464
Ave neighs/atom = 36.433
Neighbor list builds = 20000
Dangerous builds = 0
unfix		4
