LAMMPS (13 Jan 2014)
dimension       3
boundary        p p p
units           metal

atom_style	atomic
neighbor	0.3 bin
neigh_modify	every 10 delay 0 check no

# Number of steps for the equilibration steps
variable        eqsteps equal 50000

# Number of steps to run our NPH simulation
variable        simsteps equal 200000

# Our trial melting temperature
variable	T equal 1175.0
variable	T2 equal 2*${T}
variable	T2 equal 2*1175

# Some high temperature to melt the crystal
variable	Tmelt equal 2000.0

#System size
variable	nx equal 10
variable	ny equal 10
variable	nz equal 20
variable	nzhalf equal ${nz}*0.5
variable	nzhalf equal 20*0.5
variable	a equal 4.050
variable	length equal ${nz}*${a}
variable	length equal 20*${a}
variable	length equal 20*4.05

lattice		fcc ${a}
lattice		fcc 4.05
Lattice spacing in x,y,z = 4.05 4.05 4.05

region         box block 0 ${nx} 0 ${ny} 0 ${nz}
region         box block 0 10 0 ${ny} 0 ${nz}
region         box block 0 10 0 10 0 ${nz}
region         box block 0 10 0 10 0 20
create_box     1 box
Created orthogonal box = (0 0 0) to (40.5 40.5 81)
  1 by 1 by 1 MPI processor grid
create_atoms   1 box
Created 8000 atoms

mass		1 26.9815

pair_style	eam/alloy
pair_coeff	* * Al_potential.alloy Al

velocity	all create ${T2} 1337
velocity	all create 2350 1337

# Create a dump file. This can be visualized with
# e.g. OVITO (http://www.ovito.org/)
dump		id all atom 1000 atomsdump

# 1 fs timestep
timestep	0.001
thermo_style	custom step temp etotal pe press pxx pyy pzz lx ly lz

# output every 100th timestep
thermo		100

# Equilibration the whole system to the trial melting temperature
fix		1 all npt temp ${T} ${T} 1 iso 0 0 3 drag 1.0
fix		1 all npt temp 1175 ${T} 1 iso 0 0 3 drag 1.0
fix		1 all npt temp 1175 1175 1 iso 0 0 3 drag 1.0
run		${eqsteps}
run		50000
Memory usage per processor = 5.95314 Mbytes
Step Temp TotEng PotEng Press Pxx Pyy Pzz Lx Ly Lz 
       0         2350   -24747.465   -27177.252    15470.309    15292.791    15274.428    15843.708         40.5         40.5           81 
     100    1107.3517   -24773.391    -25918.34     39568.23    39931.206    39735.487    39037.997    40.591135    40.591135    81.182269 
     200    1106.9432   -24816.713   -25961.239    26752.935    27585.898    26680.998    25991.908     40.81139     40.81139    81.622781 
     300    1082.9652   -24840.086    -25959.82    17154.222    17402.937    16759.203    17300.525     40.99702     40.99702     81.99404 
     400    1072.7515   -24848.946    -25958.12    10260.215    10679.876    10005.608     10095.16    41.137293    41.137293    82.274586 
     500    1051.2347    -24850.17   -25937.096    5068.4232    4952.0575    4759.0113    5494.2008    41.252852    41.252852    82.505704 
     600    1036.5239   -24847.056   -25918.772    1440.1394    1661.7628    1629.0149    1029.6404    41.341388    41.341388    82.682776 
     700    1047.2687   -24841.744   -25924.569   -1647.7396   -2184.2745   -1204.6895   -1554.2548    41.401339    41.401339    82.802678 
     800    1042.7279   -24836.109    -25914.24   -2913.6628   -2623.7494    -3095.191   -3022.0479    41.434638    41.434638    82.869275 
     900    1031.6347   -24830.901   -25897.561   -3013.8951   -3114.6681   -3828.9591   -2098.0581    41.445936    41.445936    82.891872 
    1000    1043.5382   -24826.076   -25905.044   -2821.1034   -3113.0512   -2863.1405   -2487.1186    41.440883    41.440883    82.881766 
    1100    1049.6645   -24821.482   -25906.785   -2175.0683   -2451.3524    -1907.468   -2166.3844    41.425018    41.425018    82.850037 
    1200    1055.2639   -24816.824   -25907.916   -1147.0014   -1026.5972    -981.1898   -1433.2171    41.403964    41.403964    82.807927 
    1300    1066.4442   -24812.008    -25914.66   -139.73604   -256.75998    79.428906   -241.87705       41.383       41.383       82.766 
    1400    1059.4027   -24807.114   -25902.485    844.59495    530.13716    967.95004    1035.6977    41.366331    41.366331    82.732662 
    1500    1068.1126   -24802.186   -25906.563    1326.6274     1741.068    851.69968    1387.1145    41.356846    41.356846    82.713692 
    1600    1057.8958   -24797.333   -25891.147    1685.3679      1532.24    2143.9275    1379.9363    41.355341    41.355341    82.710681 
    1700    1076.9281   -24792.586   -25906.078    1205.1299    1925.7485    1638.1053    51.535882    41.361417    41.361417    82.722833 
    1800    1061.7817   -24787.908   -25885.739    1061.4809    959.79596    877.48094    1347.1658    41.372816    41.372816    82.745632 
    1900     1070.969   -24783.256   -25890.586    483.98356    654.88001     181.6196    615.45108    41.386507    41.386507    82.773014 
    2000    1072.4918   -24778.597   -25887.502   -90.057915    322.17435   -327.08845   -265.25965    41.400114    41.400114    82.800228 
    2100    1064.5389   -24773.919   -25874.601   -242.60283   -190.36409   -54.550312   -482.89409    41.411306    41.411306    82.822612 
    2200    1068.9407   -24769.213   -25874.446   -658.97597   -641.58255   -860.76405   -474.58132     41.41912     41.41912    82.838239 
    2300     1074.768   -24764.535   -25875.794   -861.81991   -572.37809   -737.14394   -1275.9377    41.422578    41.422578    82.845155 
    2400    1066.5577   -24759.896   -25862.666   -520.16178   -374.11586   -561.64087   -624.72861    41.422024    41.422024    82.844049 
    2500    1083.9448   -24755.299   -25876.046   -622.24519   -588.60103   -626.57736   -651.55716    41.418428    41.418428    82.836857 
    2600    1080.6247   -24750.842   -25868.156   -172.31094   -411.60357     135.6319   -240.96116    41.412673    41.412673    82.825345 
    2700    1081.0835   -24746.437   -25864.225    341.66912    201.40757    646.20926    177.39054    41.406983    41.406983    82.813965 
    2800    1077.9454   -24742.081   -25856.624    675.82335    123.65439    522.39701    1381.4187    41.403197    41.403197    82.806394 
    2900    1100.7439   -24737.722   -25875.838    346.33149    787.89247    168.53304     82.56897    41.402456    41.402456    82.804912 
    3000    1079.6599   -24733.488   -25849.804    750.19338     988.6005    721.08359    540.89605    41.404562    41.404562    82.809124 
    3100    1092.5426   -24729.284    -25858.92    285.44815    699.51678   -26.300136     183.1278    41.409513    41.409513    82.819025 
    3200    1089.4381   -24725.101   -25851.527    394.17029    261.40872    15.944225    905.15793    41.416195    41.416195     82.83239 
    3300    1087.8396   -24720.958   -25845.732     81.75162    515.88648    447.98975   -718.62137    41.423737    41.423737    82.847473 
    3400    1092.6752   -24716.843   -25846.616   -250.45413   -93.977383   -417.79189   -239.59311    41.430893    41.430893    82.861787 
    3500    1095.2212   -24712.751   -25845.157   -288.51828   -37.090131   -489.82533   -338.63938    41.436562    41.436562    82.873125 
    3600    1098.4695   -24708.663   -25844.427   -496.06988    328.76884   -274.54837   -1542.4301    41.440625    41.440625     82.88125 
    3700    1099.8314   -24704.595   -25841.767   -632.56141   -861.34855   -793.54969     -242.786    41.442478    41.442478    82.884956 
    3800    1096.1384    -24700.57   -25833.925   -177.74194   -393.29908    197.57098   -337.49773    41.442003    41.442003    82.884006 
    3900    1106.8874   -24696.635   -25841.103   -213.89249    236.38472   -863.94613   -14.116047    41.440349    41.440349    82.880697 
    4000    1105.1381   -24692.729   -25835.389    5.6065084     113.6768   -75.802985   -21.054294    41.438424    41.438424    82.876848 
    4100    1087.8215   -24688.899   -25813.654    574.33817    1474.0283   -140.88228    389.86851    41.436766    41.436766    82.873532 
    4200    1114.0957   -24685.058   -25836.979    50.907689   -15.242287    107.27383    60.691522    41.436688    41.436688    82.873376 
    4300    1107.2326   -24681.341   -25826.167    436.04109    257.58785    792.98836    257.54707    41.437655    41.437655    82.875311 
    4400    1108.0593    -24677.69    -25823.37    327.41643   -712.16702    1028.1187    666.29763     41.44061     41.44061    82.881221 
    4500    1118.7983   -24674.079   -25830.862   -88.516677    42.500091   -265.45734   -42.592778    41.444992    41.444992    82.889984 
    4600    1101.6975   -24670.529   -25809.632     124.2879    221.11509    64.017336     87.73128    41.449441    41.449441    82.898881 
    4700     1115.266   -24666.959   -25820.091   -158.99769   -64.537104   -392.02233   -20.433632    41.453541    41.453541    82.907082 
    4800    1113.0844    -24663.46   -25814.336   -231.26512   -107.48093   -252.36207   -333.95236    41.456535    41.456535    82.913069 
    4900     1122.276   -24660.025   -25820.404   -402.15071    -766.2709    402.38387    -842.5651    41.458181    41.458181    82.916361 
    5000    1116.6055   -24656.671   -25811.187    -180.6898    12.325091   -613.20526     58.81077    41.458776    41.458776    82.917552 
    5100    1132.4115   -24653.254   -25824.114    -466.1489    162.80737   -916.84314   -644.41093    41.459117    41.459117    82.918235 
    5200    1114.7288    -24649.97   -25802.546    36.051579   -911.30274    829.95433    189.50315    41.458672    41.458672    82.917344 
    5300    1116.8133   -24646.668   -25801.399      48.1952    143.84832    9.9133942   -9.1761194    41.458397    41.458397    82.916794 
    5400    1128.3268   -24643.382   -25810.018   -96.890913    187.44872   -639.13352    161.01206     41.45845     41.45845      82.9169 
    5500    1120.6339   -24640.171   -25798.852    189.89555   -13.026382     873.5701   -290.85706    41.458674    41.458674    82.917349 
    5600    1115.8618   -24636.956   -25790.703    338.95564   -192.48974    393.03066    816.32601    41.460073    41.460073    82.920146 
    5700    1132.6767   -24633.778   -25804.911   -143.44892    -265.5045    -535.0289    370.18663    41.462496    41.462496    82.924993 
    5800    1131.4622   -24630.754   -25800.631    44.804272    194.91886    131.69487   -192.20092    41.464873    41.464873    82.929745 
    5900    1117.9651   -24627.746   -25783.668    253.55719   -200.81451    501.16418     460.3219    41.467659    41.467659    82.935317 
    6000    1133.2499   -24624.739   -25796.464   -154.98274    459.69828   -329.14258   -595.50392    41.470792    41.470792    82.941584 
    6100    1126.3903   -24621.727    -25786.36    65.426551    505.70219   -280.24144   -29.181102    41.473696    41.473696    82.947392 
    6200    1130.5459   -24618.773   -25787.703   -106.06446   -434.27317    889.65755   -773.57776    41.476437    41.476437    82.952873 
    6300    1125.0256   -24615.775   -25778.997   -4.1995361   -34.914698   -32.015379    54.331469    41.478971    41.478971    82.957942 
    6400    1128.2647   -24612.823   -25779.395    -212.7416   -857.42765    701.45883   -482.25598      41.4807      41.4807    82.961401 
    6500    1133.5413   -24609.931   -25781.959   -208.93918   -27.016181    56.319968   -656.12132    41.481278    41.481278    82.962556 
    6600     1126.992   -24607.101   -25772.356    51.618359    418.48606   -13.405398   -250.22559    41.481083    41.481083    82.962166 
    6700     1132.602    -24604.29   -25775.346    44.616956    274.37263    171.92988   -312.45164    41.480558    41.480558    82.961116 
    6800    1138.9648   -24601.501   -25779.136   -71.751515   -228.30793   -246.09347    259.14686    41.480353    41.480353    82.960706 
    6900    1141.9066    -24598.82   -25779.497   -40.999096    404.79837   -474.25367   -53.541989    41.480077    41.480077    82.960154 
    7000    1131.6038   -24596.231   -25766.255    435.07394    667.04961     184.3837    453.78853    41.479801    41.479801    82.959602 
    7100    1142.3867   -24593.748   -25774.921    152.18154    269.69377    164.66314      22.1877    41.480021    41.480021    82.960042 
    7200    1132.2568    -24591.35   -25762.049    396.19625    497.30521    376.02527    315.25827    41.480742    41.480742    82.961484 
    7300     1137.177   -24588.962   -25764.748    320.62304    191.64433    163.60761    606.61718    41.482783    41.482783    82.965566 
    7400    1138.5012   -24586.571   -25763.726     224.9931    565.48947    547.30877   -437.81893    41.485715    41.485715     82.97143 
    7500    1131.7546   -24584.293   -25754.473    358.18634    397.95275    419.42918    257.17708    41.488739    41.488739    82.977477 
    7600    1161.0645   -24581.939   -25782.424   -512.55589   -500.09445    122.32932   -1159.9025    41.492603    41.492603    82.985207 
    7700    1138.6823   -24579.625   -25756.967    103.44508    192.58916    347.39464   -229.64857    41.495829    41.495829    82.991659 
    7800    1140.6994   -24577.282    -25756.71   -145.55457    625.17693   -223.02049   -838.82015    41.498689    41.498689    82.997378 
    7900    1159.8352   -24574.953   -25774.167   -625.40749   -677.88868   -322.34629    -875.9875    41.500508    41.500508    83.001016 
    8000    1147.7102     -24572.7   -25759.377   -295.02678   -202.98417   -88.199367   -593.89679    41.500659    41.500659    83.001319 
    8100    1156.7536   -24570.522    -25766.55   -333.58223    64.492092   -653.89729    -411.3415    41.499511    41.499511    82.999021 
    8200    1151.4228   -24568.404    -25758.92   -74.751966    643.94148      349.303   -1217.5004    41.497875    41.497875    82.995749 
    8300    1155.9604    -24566.27   -25761.477   -68.861488    485.36901   -318.11329   -373.84018    41.496519    41.496519    82.993038 
    8400    1154.5466   -24564.223   -25757.969    132.63567     727.7932   -521.70146    191.81526    41.495259    41.495259    82.990518 
    8500    1162.2307   -24562.251   -25763.941    11.405551    78.577684    457.14583   -501.50687    41.494679    41.494679    82.989357 
    8600    1165.2187   -24560.241   -25765.021    -186.2239    244.47366   -3.2112333   -799.93412    41.495652    41.495652    82.991303 
    8700    1150.0623   -24558.351    -25747.46    243.89393    180.20416    403.18538    148.29224    41.496814    41.496814    82.993629 
    8800    1146.5696   -24556.491   -25741.988    543.90906     496.1369    422.67375    712.91652    41.499079    41.499079    82.998158 
    8900    1166.7221    -24554.65   -25760.985   -153.83954    306.79884    145.00061   -913.31809    41.502278    41.502278    83.004556 
    9000     1172.852   -24552.886   -25765.559   -387.13173   -824.99809   -139.15524   -197.24184     41.50541     41.50541    83.010821 
    9100    1139.6413   -24551.227   -25729.561    332.75111   -57.489942    7.3774183    1048.3658    41.508156    41.508156    83.016313 
    9200    1154.8455   -24549.531   -25743.586   -115.84927   -189.83014    112.46671   -270.18437    41.510942    41.510942    83.021884 
    9300    1159.3367   -24547.777   -25746.475   -384.65415   -341.19076   -426.15007   -386.62161    41.513209    41.513209    83.026418 
    9400    1160.1899   -24546.048   -25745.628   -465.42654   -200.15769   -842.53495   -353.58697    41.514116    41.514116    83.028232 
    9500    1164.4942   -24544.321   -25748.352   -357.69097   -623.25363   -27.917537   -421.90172    41.513609    41.513609    83.027218 
    9600    1163.2263   -24542.642   -25745.362   -230.34979   -800.98355    6.3276461    103.60652    41.511984    41.511984    83.023968 
    9700    1167.2398   -24540.941   -25747.811   -81.380067   -265.54542   -384.54359    405.94881     41.51016     41.51016    83.020321 
    9800    1161.1849   -24539.247   -25739.856    44.069351    375.40565   -182.07902   -61.118575    41.509149    41.509149    83.018299 
    9900    1160.3056   -24537.653   -25737.353     118.4184   -258.01466    26.281616    586.98825    41.508362    41.508362    83.016724 
   10000    1144.4975   -24536.128   -25719.483    714.16932    624.69545    1188.3782    329.43425     41.50833     41.50833    83.016659 
   10100    1178.9323   -24534.507   -25753.466   -243.40174   -33.263054   -803.01274    106.07058    41.510702    41.510702    83.021405 
   10200     1161.202   -24533.051   -25733.678    -95.10879   -536.15814    501.18251   -250.35074    41.512985    41.512985    83.025969 
   10300    1168.0753   -24531.608   -25739.342    -82.48781   -256.99464     147.9337   -138.40249    41.515309    41.515309    83.030618 
   10400    1154.4094   -24530.167   -25723.771   -28.730081   -112.39018   -302.23751    328.43745    41.517862    41.517862    83.035724 
   10500    1171.3769   -24528.724   -25739.871   -466.93688   -128.11051   -357.52562   -915.17452    41.520073    41.520073    83.040146 
   10600    1170.0274   -24527.291   -25737.043   -361.58088   -584.16738   -814.33797    313.76271    41.521395    41.521395    83.042791 
   10700    1149.1099   -24525.923   -25714.047    200.27179   -375.49614   -131.36129    1107.6728    41.521724    41.521724    83.043447 
   10800      1172.27   -24524.504   -25736.575     -339.278   -169.62952   -736.75989   -111.44458    41.521768    41.521768    83.043536 
   10900    1162.7603    -24523.24   -25725.478    78.459213    153.88619    234.42896   -152.93751    41.520411    41.520411    83.040823 
   11000    1164.3388   -24521.983   -25725.853    111.13827    470.20038    -464.2313    327.44573    41.519108    41.519108    83.038216 
   11100    1183.6408   -24520.751   -25744.578   -197.46804    -223.4051   -907.08275    538.08372    41.518192    41.518192    83.036383 
   11200    1178.0058   -24519.731   -25737.732   -116.16968   -259.85079     98.17469   -186.83294    41.517332    41.517332    83.034664 
   11300    1162.4239   -24518.767   -25720.658    198.35104    591.09047    -257.2158    261.17845    41.517237    41.517237    83.034474 
   11400    1172.6578   -24517.755   -25730.227    33.849384    539.74077    113.90602   -552.09864    41.518284    41.518284    83.036569 
   11500    1163.2654   -24516.794   -25719.555    160.28532    261.90291    307.18343   -88.230365    41.519865    41.519865    83.039731 
   11600      1187.41   -24515.781   -25743.505   -522.73817   -642.90681   -21.902719   -903.40498     41.52231     41.52231    83.044621 
   11700    1156.8777   -24514.865   -25711.021    217.40098    356.38679    482.94963    -187.1335     41.52404     41.52404     83.04808 
   11800    1154.4199   -24513.865    -25707.48    180.91737    18.479268   -5.2097464    529.48259    41.526157    41.526157    83.052313 
   11900    1175.5355   -24512.771   -25728.219   -264.91779   -277.38238   -558.67545    41.304447    41.528307    41.528307    83.056614 
   12000    1172.9864   -24511.803   -25724.614   -350.56224   -317.56277   -1101.0933    366.96937    41.529164    41.529164    83.058329 
   12100     1170.281   -24510.931   -25720.945   -66.621797    201.74545   -356.29502   -45.315827    41.528664    41.528664    83.057327 
   12200    1158.5897   -24510.103   -25708.029    126.07598    330.46213   -646.22561    693.99141    41.527419    41.527419    83.054837 
   12300    1167.4936   -24509.235   -25716.367   -146.25537    821.14855   -273.72423   -986.19042    41.525863    41.525863    83.051727 
   12400    1182.9331   -24508.424    -25731.52   -278.40398   -440.28911    -297.0815   -97.841333    41.523871    41.523871    83.047743 
   12500    1160.6345   -24507.664   -25707.705    493.39619    828.57076    -30.89086    682.50866    41.522015    41.522015     83.04403 
   12600    1159.0058   -24506.932   -25705.288    539.41781    658.26114    350.64151    609.35077     41.52147     41.52147     83.04294 
   12700     1176.249   -24506.228   -25722.413    133.08804    501.03494    323.06806   -424.83887    41.522473    41.522473    83.044946 
   12800    1162.0661   -24505.531   -25707.052    387.55677    1101.5802    124.38387   -63.293805    41.524568    41.524568    83.049136 
   12900    1179.7271   -24504.949    -25724.73   -19.832155   -148.29596   -616.52355    705.32305    41.527209    41.527209    83.054417 
   13000    1159.9665   -24504.424   -25703.773    296.57575   -115.00413    461.76719    542.96418    41.530071    41.530071    83.060143 
   13100    1170.3907   -24503.911   -25714.038   -84.276666   -193.25532    467.21134   -526.78602    41.532739    41.532739    83.065478 
   13200    1165.9961   -24503.474   -25709.057   -30.935928    221.18014    307.03067    -621.0186    41.534123    41.534123    83.068246 
   13300    1158.1592    -24503.05   -25700.531    143.99147    280.95393   -180.45557    331.47606     41.53437     41.53437     83.06874 
   13400    1183.2188   -24502.495   -25725.887   -422.23994   -729.61022   -245.93464   -291.17498     41.53432     41.53432    83.068639 
   13500    1166.5716   -24501.947   -25708.125    21.084423    982.73423   -793.72059   -125.76038    41.533432    41.533432    83.066863 
   13600    1169.4064   -24501.346   -25710.456    28.179821    427.83051   -496.40375    153.11271    41.532532    41.532532    83.065063 
   13700    1177.9322   -24500.834   -25718.759   -73.804832   -131.48589    395.45672   -485.38532    41.531227    41.531227    83.062455 
   13800    1175.5045   -24500.435    -25715.85   -52.177358   -98.840943    59.150067    -116.8412    41.529386    41.529386    83.058773 
   13900    1173.9605   -24500.118   -25713.937    95.715662   -314.08983    189.22652     412.0103    41.527643    41.527643    83.055286 
   14000    1177.1518   -24499.746   -25716.865    207.00436    368.18699    311.25954   -58.433453    41.526979    41.526979    83.053958 
   14100     1151.637   -24499.356   -25690.093     651.5948    68.267035    1015.6935    870.82392    41.527556    41.527556    83.055112 
   14200    1175.7867   -24498.954   -25714.661    -94.29934   -182.97698   -346.42842    246.50738    41.529359    41.529359    83.058718 
   14300    1170.0295   -24498.518   -25708.272    26.480532    122.71017     539.5759   -582.84447    41.531548    41.531548    83.063095 
   14400     1160.098   -24498.137   -25697.623    391.99977    154.50445    853.80849    167.68638    41.533822    41.533822    83.067645 
   14500       1180.5   -24497.806   -25718.387   -322.42747    -721.7027    141.92681   -387.50653    41.536157    41.536157    83.072314 
   14600    1178.3152   -24497.611   -25715.932   -310.68282   -718.99174    61.212781   -274.26951    41.537125    41.537125     83.07425 
   14700    1176.2328   -24497.412    -25713.58   -208.39352   -774.19823    188.90171   -39.884036    41.537325    41.537325    83.074649 
   14800    1187.7337   -24497.242   -25725.302   -456.05579   -932.67822   -249.31264    -186.1765    41.536605    41.536605     83.07321 
   14900    1179.5246   -24497.139    -25716.71    -118.9286   -288.21503   -640.38163    571.81085    41.534587    41.534587    83.069174 
   15000    1185.5146   -24497.072   -25722.837   -98.882739   -805.84645    326.65301    182.54522    41.532168    41.532168    83.064337 
   15100    1174.6342   -24497.052   -25711.567    170.84818    324.99604    174.45203    13.096481    41.529937    41.529937    83.059874 
   15200    1180.5731   -24497.039   -25717.695   -25.327308   -291.13194   -63.812654    278.96267     41.52863     41.52863    83.057261 
   15300    1178.2123   -24497.039   -25715.254    128.05279   -433.32091    787.38578    30.093495    41.528225    41.528225    83.056451 
   15400    1178.8633   -24497.051   -25715.939    230.66083    111.08298    210.10247    370.79704     41.52887     41.52887     83.05774 
   15500     1171.646   -24497.131   -25708.556    352.94115    463.22893    382.56568    213.02885     41.53047     41.53047     83.06094 
   15600    1178.7682   -24497.125   -25715.915   -129.24037   -170.25832    115.47864   -332.94142    41.533288    41.533288    83.066575 
   15700    1176.8596   -24497.072   -25713.888   -174.41876   -281.68892    -604.5424    362.97504    41.536256    41.536256    83.072511 
   15800    1159.8424   -24496.986   -25696.207    158.35507    266.73731    187.44455    20.883359    41.538701    41.538701    83.077402 
   15900    1173.4068   -24496.854     -25710.1   -248.09744   -196.81907   -266.07433   -281.39891     41.54019     41.54019     83.08038 
   16000    1168.2778   -24496.741   -25704.684   -154.52458    27.359891   -198.21903   -292.71459    41.540047    41.540047    83.080094 
   16100    1174.7337   -24496.648   -25711.266   -206.33685   -523.64048    155.23416   -250.60423    41.538613    41.538613    83.077226 
   16200    1160.3357   -24496.604   -25696.335    334.09835    459.67423   -114.82151    657.44233    41.536255    41.536255    83.072509 
   16300     1172.927   -24496.459    -25709.21    36.342532   -53.554701   -150.66671    313.24901    41.534132    41.534132    83.068265 
   16400    1179.3654   -24496.355   -25715.762   -63.248825   -563.86288    97.576874    276.53953    41.531807    41.531807    83.063615 
   16500    1175.3291   -24496.321   -25711.555    66.682082    504.38454    206.22319   -510.56149    41.529175    41.529175    83.058349 
   16600    1183.8202   -24496.369   -25720.383    83.428302   -355.35583    245.68475    359.95599     41.52699     41.52699     83.05398 
   16700    1163.7811   -24496.498   -25699.792    574.47911    612.00349    530.38049    581.05336    41.525726    41.525726    83.051452 
   16800    1168.8523   -24496.583    -25705.12    344.14847   -584.09804    1332.4766    284.06688    41.526424    41.526424    83.052849 
   16900    1172.3611   -24496.595    -25708.76    204.98737    143.24693   -23.433083    495.14827    41.528541    41.528541    83.057083 
   17000    1191.4232   -24496.651   -25728.525   -458.37456   -807.59406   -423.73869   -143.79093    41.530957    41.530957    83.061914 
   17100    1172.6024   -24496.718   -25709.132   -47.347662    600.83419   -137.38707    -605.4901    41.532995    41.532995    83.065989 
   17200    1177.7492   -24496.827   -25714.563   -71.239761    155.34203     -222.491   -146.57031    41.534313    41.534313    83.068626 
   17300    1164.7546   -24496.973   -25701.273    143.95122   -78.188268    102.68921    407.35271    41.535109    41.535109    83.070218 
   17400    1179.0106   -24496.988   -25716.028   -294.04285   -369.11075   -103.01667   -410.00112     41.53609     41.53609     83.07218 
   17500    1162.4521   -24497.014   -25698.933     196.0642   -120.64857    1030.3626    -321.5214    41.535984    41.535984    83.071967 
   17600    1177.0882   -24497.009   -25714.062   -281.13022    222.84367   -811.95982   -254.27451    41.535453    41.535453    83.070905 
   17700    1147.7785   -24496.917   -25683.664    680.41679    776.36009    743.19434    521.69594    41.534546    41.534546    83.069091 
   17800    1175.1047   -24496.704   -25711.706   -204.62176     -655.582    416.25635   -374.53964    41.534075    41.534075     83.06815 
   17900    1168.4249   -24496.529   -25704.624    102.83781   -332.12508    175.50014    465.13837    41.532642    41.532642    83.065284 
   18000    1170.4633   -24496.365   -25706.568    168.75201   -348.41296    418.56201    436.10699    41.530916    41.530916    83.061832 
   18100    1171.8112   -24496.243   -25707.839    198.89901    121.78265    855.08973   -380.17534    41.529328    41.529328    83.058656 
   18200    1179.5521   -24496.088   -25715.688    67.505646   -122.65447   -34.877415    360.04882    41.528757    41.528757    83.057514 
   18300       1185.3   -24495.962   -25721.505   -29.056382    84.254831   -234.54423     63.12025     41.52891     41.52891    83.057819 
   18400    1174.0017   -24495.967   -25709.828    36.987593    976.95517      -427.86   -438.13239    41.529246    41.529246    83.058491 
   18500    1158.6248   -24496.014   -25693.976     638.3996    1147.3746     233.2146     534.6096    41.529788    41.529788    83.059575 
   18600    1176.7778   -24496.026   -25712.757    39.599691    282.71733    285.20672   -449.12497     41.53126     41.53126    83.062519 
   18700     1184.668   -24496.138   -25721.027   -133.91817    15.356166   -304.48548   -112.62521    41.532615    41.532615     83.06523 
   18800    1180.6797   -24496.249   -25717.015   -323.14429   -165.12607   -3.6112755   -800.69554    41.534158    41.534158    83.068317 
   18900    1174.6844   -24496.387   -25710.954   -160.20606   -605.28727   -323.40435    448.07344    41.534707    41.534707    83.069414 
   19000    1163.1683    -24496.46    -25699.12    158.22112    54.127843    167.52121    253.01429    41.534543    41.534543    83.069086 
   19100    1179.2682   -24496.299   -25715.605    2.1083425   -105.63669   -519.99173    631.95345    41.535021    41.535021    83.070042 
   19200    1175.6742   -24496.173   -25711.763   -52.866061    100.54544    -158.0116   -101.13202    41.535079    41.535079    83.070158 
   19300    1187.4285   -24496.176    -25723.92   -205.41303   -71.967967   -394.50238   -149.76873     41.53412     41.53412     83.06824 
   19400    1173.1323   -24496.236   -25709.198   -33.128004   -57.466686   -356.10269    314.18536    41.532948    41.532948    83.065896 
   19500    1180.5783   -24496.158   -25716.819   -99.755192    24.457717   -279.62361   -44.099682    41.532469    41.532469    83.064939 
   19600    1177.4419   -24496.117   -25713.535    25.769648    985.71376    208.38029   -1116.7851    41.532351    41.532351    83.064701 
   19700    1182.4819   -24495.972   -25718.601   -290.85034   -297.20515   -299.44285   -275.90302    41.533222    41.533222    83.066443 
   19800     1174.125   -24495.868   -25709.857   -33.741504    764.12803   -484.47144    -380.8811    41.533588    41.533588    83.067176 
   19900    1168.1817   -24495.688   -25703.532    193.81081    -244.6203     418.2525    407.80024    41.534267    41.534267    83.068535 
   20000    1184.2185    -24495.42   -25719.845   -406.01463   -791.64659    125.42686   -551.82416    41.535435    41.535435     83.07087 
   20100    1197.3953    -24495.22   -25733.269     -654.404   -1444.4513   -261.68894   -257.07179    41.535858    41.535858    83.071716 
   20200     1161.964   -24495.148   -25696.563    262.72354    88.090038    601.11704    98.963554    41.535246    41.535246    83.070492 
   20300    1177.9506   -24494.975   -25712.919   -275.11673   -65.006747   -381.73515   -378.60829    41.534864    41.534864    83.069728 
   20400    1168.3302   -24494.825   -25702.822    44.850121   -126.40821   -251.62256    512.58114    41.533888    41.533888    83.067776 
   20500    1164.5687   -24494.613   -25698.721    392.74893   -24.110638    319.12176    883.23567    41.533084    41.533084    83.066167 
   20600    1179.5477   -24494.386   -25713.981   -39.930389    290.29532    -263.9619   -146.12459    41.532949    41.532949    83.065899 
   20700     1169.253   -24494.239    -25703.19    172.43516    75.192579    290.49541    151.61749    41.532579    41.532579    83.065158 
   20800    1159.8492   -24494.059   -25693.288    659.16929    274.38584    814.75113    888.37091    41.532777    41.532777    83.065554 
   20900    1183.4987   -24493.863   -25717.543   -79.057047   -288.43736    61.131776   -9.8655591    41.534157    41.534157    83.068314 
   21000    1178.8819   -24493.769   -25712.676   -136.96365    179.03911   -170.02391   -419.90616    41.535007    41.535007    83.070013 
   21100    1174.2669   -24493.707   -25707.843    58.379257   -22.193972    42.231439     155.1003    41.535443    41.535443    83.070885 
   21200    1182.9511   -24493.642   -25716.757   -126.60768   -1056.7889    615.18573    61.780095    41.535653    41.535653    83.071305 
   21300    1181.0888   -24493.549   -25714.738   -115.01025    239.71037   -159.48187   -425.25924     41.53632     41.53632     83.07264 
   21400    1176.4968   -24493.477   -25709.918   -250.98228   -137.50538   -342.55277   -272.88869    41.537187    41.537187    83.074375 
   21500    1188.9554   -24493.353   -25722.676   -413.22497    99.810654   -780.29318   -559.19239    41.537937    41.537937    83.075874 
   21600    1173.6263   -24493.313   -25706.786   -68.964781   -51.557305   -156.30819   0.97114956    41.537648    41.537648    83.075296 
   21700    1188.5503   -24493.162   -25722.066   -581.04522   -188.84429   -511.78566   -1042.5057     41.53742     41.53742     83.07484 
   21800    1169.0091   -24493.115   -25701.814    15.392963    426.70841    78.184622   -458.71414    41.535785    41.535785     83.07157 
   21900    1183.1905   -24493.083   -25716.445   -145.24806   -88.099813   -91.048611   -256.59574    41.533739    41.533739    83.067478 
   22000      1176.32   -24493.063   -25709.322    236.69141    632.48175    308.13306   -230.54058     41.53161     41.53161     83.06322 
   22100    1172.4142   -24493.127   -25705.347    278.18693    16.869281   -177.43533    995.12684    41.529934    41.529934    83.059869 
   22200    1161.9124   -24493.174   -25694.535    513.51586    193.65392    578.05637    768.83727    41.529356    41.529356    83.058712 
   22300    1181.8478   -24493.232   -25715.206   -11.402595    -426.2019   -340.59502    732.58913    41.529629    41.529629    83.059257 
   22400    1180.6604    -24493.34   -25714.086    16.047152    315.00856   -64.244908   -202.62219    41.530407    41.530407    83.060814 
   22500    1179.7962   -24493.496   -25713.349    95.810404   -188.36871    176.28154    299.51838    41.531672    41.531672    83.063344 
   22600    1171.1176   -24493.671    -25704.55    237.45127  -0.11371649    262.52001    449.94753    41.533587    41.533587    83.067173 
   22700    1174.5148   -24493.777   -25708.169   -82.897883   -578.56743   -274.67599    604.54978    41.536311    41.536311    83.072623 
   22800    1172.6526    -24493.86   -25706.326   -208.79413   -656.22274    116.26138    -86.42103    41.538742    41.538742    83.077485 
   22900     1161.203   -24493.951   -25694.579    90.096217    1161.9504   -517.48365   -374.17812    41.539892    41.539892    83.079783 
   23000    1181.3671   -24493.978   -25715.455   -436.90478    -173.0234    146.50819   -1284.1991    41.539836    41.539836    83.079672 
   23100    1171.5154   -24493.967   -25705.257   -91.089639   -365.75376    681.38788   -588.90304    41.538317    41.538317    83.076634 
   23200    1170.8282   -24493.852   -25704.432    49.225072    753.30208   -401.21275   -204.41412    41.536513    41.536513    83.073025 
   23300    1158.9906   -24493.674   -25692.014    300.35099   -135.38337    519.69168    516.74467    41.534935    41.534935     83.06987 
   23400     1180.626   -24493.481   -25714.191   -145.52277   -873.91882    11.477223     425.8733    41.533537    41.533537    83.067073 
   23500    1189.9034   -24493.271   -25723.574   -221.66351   -18.223558   -298.39797   -348.36899    41.532594    41.532594    83.065188 
   23600    1176.5206   -24493.097   -25709.563    106.86084     271.7937    52.052096   -3.2632719    41.532022    41.532022    83.064044 
   23700    1186.0655   -24492.961   -25719.296   -155.70628    606.92322    -126.9939   -947.04815    41.532079    41.532079    83.064158 
   23800    1175.1811   -24492.909   -25707.989    31.273203   -506.57556    437.55531    162.83987    41.532341    41.532341    83.064682 
   23900    1174.5733   -24492.868    -25707.32    111.20723    285.80041    186.19991   -138.37863    41.533086    41.533086    83.066171 
   24000    1167.5732   -24492.971   -25700.186    201.07615   -242.30857    848.94905    -3.412046    41.533662    41.533662    83.067323 
   24100    1178.2863   -24492.998   -25711.289   -40.655116   -332.25797    527.10953   -316.81691    41.534931    41.534931    83.069862 
   24200    1179.6289   -24492.934   -25712.614   -326.07267   -171.68725    79.488395   -886.01916    41.536589    41.536589    83.073178 
   24300    1168.8999   -24492.763    -25701.35   -151.96178    91.326299   -76.691469   -470.52018    41.537919    41.537919    83.075838 
   24400    1173.1354   -24492.559   -25705.525   -95.557895    224.06457   -439.00061   -71.737648    41.538616    41.538616    83.077233 
   24500    1170.1014   -24492.396   -25702.225   -34.489927   -723.16157    250.79636    368.89542    41.538563    41.538563    83.077125 
   24600    1174.3861   -24492.288   -25706.547   -146.95709    380.00201    178.06348   -998.93677    41.537733    41.537733    83.075467 
   24700     1174.701   -24492.168   -25706.753    21.465732    351.10824    16.812439   -303.52348    41.536531    41.536531    83.073062 
   24800    1180.6073   -24492.081   -25712.772   -75.265387   -41.555837   -936.34683    752.10651    41.535376    41.535376    83.070753 
   24900    1176.5435   -24492.078   -25708.568    -45.87182   -659.32414    295.74322    225.96547    41.534132    41.534132    83.068264 
   25000    1166.4959   -24492.055   -25698.156    411.84997    773.40725    44.993336    417.14933    41.533521    41.533521    83.067042 
   25100    1188.6707   -24492.054   -25721.083   -345.00031   -440.98309   -74.129271   -519.88857    41.533532    41.533532    83.067065 
   25200    1164.5676   -24492.162   -25696.269    325.89165    586.56028   -300.59179    691.70646     41.53324     41.53324    83.066481 
   25300    1176.9112    -24492.28   -25709.149   -23.907984   -61.732176    13.013071   -23.004847    41.533332    41.533332    83.066663 
   25400    1173.8764   -24492.382   -25706.114    161.56286    151.40597    122.62302    210.65958    41.533773    41.533773    83.067547 
   25500    1174.5315   -24492.556   -25706.965    6.8801388    125.55118    97.358709   -202.26947     41.53431     41.53431    83.068621 
   25600    1178.2163   -24492.713   -25710.932   -46.720738    102.12128    74.801929   -317.08543    41.534776    41.534776    83.069552 
   25700    1185.3961    -24492.89   -25718.533   -304.15063   -48.510893   -726.18733   -137.75366     41.53502     41.53502     83.07004 
   25800    1190.8561   -24493.053   -25724.341   -294.50647   -250.37653   -294.46192   -338.68095    41.535102    41.535102    83.070205 
   25900    1171.2756   -24493.273   -25704.315    170.45114   -76.492465   -106.47533    694.32123    41.534752    41.534752    83.069504 
   26000    1181.8763   -24493.407    -25715.41   -182.94398   -285.13899   -528.75235    265.05938    41.534721    41.534721    83.069443 
   26100    1177.1452   -24493.453   -25710.565   -159.86843   -228.04338   -267.22843    15.666529    41.534748    41.534748    83.069496 
   26200    1176.3708   -24493.401   -25709.712   -27.093638      68.5394   -170.35139    20.531071     41.53488     41.53488     83.06976 
   26300    1172.3307   -24493.414   -25705.548    96.002121    316.39935    203.52859   -231.92158    41.534791    41.534791    83.069581 
   26400    1168.8944   -24493.398   -25701.979    176.93314    36.594395   -124.80946    619.01447    41.534971    41.534971    83.069941 
   26500    1167.7267    -24493.33   -25700.703    146.93649   -180.19905     285.0887    335.91984    41.535605    41.535605     83.07121 
   26600    1177.6169   -24493.301     -25710.9   -25.705869   -616.93109    406.57896    133.23452    41.535687    41.535687    83.071375 
   26700    1181.2146   -24493.254   -25714.573   -172.85096   -214.60317    137.99124   -441.94097    41.535723    41.535723    83.071445 
   26800    1174.5975    -24493.15   -25707.628   -164.02934   -1068.3492     664.9902   -88.729075     41.53592     41.53592     83.07184 
   26900    1178.9243   -24493.012   -25711.963   -261.51991   -182.77447    -454.3387   -147.44656    41.535676    41.535676    83.071351 
   27000    1172.3591   -24492.921   -25705.084    186.10878    29.127534    365.11734    164.08145    41.534623    41.534623    83.069246 
   27100    1170.1061   -24492.772   -25702.605   -9.7678088   -88.983381    399.62286    -339.9429    41.534098    41.534098    83.068195 
   27200    1177.6008   -24492.717     -25710.3   -12.222058    517.77294   -204.53142    -349.9077    41.533035    41.533035    83.066069 
   27300    1169.7854   -24492.672   -25702.174    276.79759    301.61338   0.30218893    528.47719    41.532468    41.532468    83.064937 
   27400    1180.8729   -24492.481   -25713.447   -82.027691    478.91309    -1025.427    300.43085    41.533489    41.533489    83.066979 
   27500    1182.3803   -24492.284   -25714.808   -198.92957    56.816839    29.863379   -683.46892    41.534753    41.534753    83.069506 
   27600     1170.547   -24492.134   -25702.424    128.31296    765.33346    48.389067   -428.78365    41.535639    41.535639    83.071279 
   27700    1170.8454    -24491.99   -25702.588    193.44959   -232.14592     897.8198   -85.325119    41.536511    41.536511    83.073022 
   27800    1183.5367   -24491.916   -25715.636   -329.90954   -496.03486   -100.97279   -392.72096    41.537191    41.537191    83.074381 
   27900      1172.69   -24491.938   -25704.443    61.201324   -793.60505    328.28722     648.9218    41.537019    41.537019    83.074038 
   28000    1177.7807   -24491.959   -25709.728    3.9113523    467.46534    8.6005292   -464.33181     41.53653     41.53653    83.073061 
   28100    1178.8121   -24492.031   -25710.866    123.78267    1058.5807   -569.66139   -117.57134    41.535811    41.535811    83.071623 
   28200    1164.6868   -24492.151   -25696.381    342.26993    278.81923    434.95612    313.03444    41.535345    41.535345     83.07069 
   28300    1169.7612   -24492.234   -25701.711    234.38591    548.32429    655.08379   -500.25036    41.535421    41.535421    83.070842 
   28400    1165.5112   -24492.316   -25697.399    193.41551    460.16358   -192.99342    313.07638    41.535699    41.535699    83.071399 
   28500    1172.0129   -24492.349   -25704.154    22.328328    223.84886    269.72566   -426.58954    41.536065    41.536065     83.07213 
   28600    1179.0664   -24492.527   -25711.625   -46.353683   -666.10507    109.59217    417.45185    41.535341    41.535341    83.070683 
   28700    1175.6422   -24492.722   -25708.279   -7.4953823   -9.8912142    69.397851   -81.992784    41.534501    41.534501    83.069002 
   28800    1183.5848    -24492.87    -25716.64   -94.829132    544.69601   -1009.6324    180.44903    41.534012    41.534012    83.068023 
   28900    1170.9504   -24493.103    -25703.81    268.22947    227.81291   -100.28218    677.15768    41.533188    41.533188    83.066376 
   29000    1183.8318    -24493.26   -25717.286   -305.08304    462.20743   -712.79866    -664.6579    41.533305    41.533305     83.06661 
   29100    1188.5151   -24493.331   -25722.198   -214.79154   -636.46488    401.01457    -408.9243    41.534151    41.534151    83.068302 
   29200    1190.4979   -24493.473    -25724.39   -500.41066   -601.24616   -453.30051   -446.68532    41.534765    41.534765     83.06953 
   29300     1168.572   -24493.693    -25701.94     303.8589    4.0851197    492.54031    414.95127    41.534461    41.534461    83.068922 
   29400    1172.5632   -24493.807   -25706.181    16.869738   -329.04772    609.30153    -229.6446     41.53499     41.53499    83.069979 
   29500    1176.8413    -24493.87   -25710.667    37.219774   -258.11634   -14.214553    383.99021    41.535388    41.535388    83.070775 
   29600    1160.2725   -24493.919   -25693.585    265.70041    387.83296      670.145   -260.87672    41.535661    41.535661    83.071322 
   29700    1175.9935   -24493.891   -25709.812   -146.25844   -378.92101    195.09172   -254.94603     41.53613     41.53613     83.07226 
   29800    1178.0132    -24493.79   -25711.799   -335.83563   -317.13333   -560.76516   -129.60839    41.536682    41.536682    83.073364 
   29900    1172.2903   -24493.674   -25705.766   -200.70575   -780.99422    20.575658     158.3013    41.536609    41.536609    83.073217 
   30000    1184.4474    -24493.55   -25718.211   -212.43289   -52.850067    32.025404   -616.47401    41.535714    41.535714    83.071428 
   30100    1166.6174   -24493.478   -25699.704    213.44542   -219.03171    45.700724    813.66724     41.53434     41.53434     83.06868 
   30200    1177.9089   -24493.404   -25711.305   -164.01459   -358.82121    563.10591   -696.32847    41.533239    41.533239    83.066478 
   30300    1177.0476   -24493.422   -25710.433   -11.063668   -849.06974    698.13012    117.74862    41.531723    41.531723    83.063445 
   30400    1166.2141   -24493.573   -25699.382    414.46544    937.81358    389.27982   -83.697067    41.529874    41.529874    83.059749 
   30500    1182.4124   -24493.707   -25716.265    55.253531    181.44611    62.951935   -78.637457    41.529108    41.529108    83.058217 
   30600    1184.3294   -24493.876   -25718.416   -13.710604    346.91054   -515.74405     127.7017    41.529155    41.529155    83.058309 
   30700     1170.747   -24494.104     -25704.6    388.06585   -246.66336    695.49475    715.36615    41.529946    41.529946    83.059892 
   30800    1185.2644   -24494.384    -25719.89   -244.27816   -523.34685   -48.671096   -160.81653    41.531405    41.531405     83.06281 
   30900    1167.5828   -24494.661   -25701.885     285.2469    101.78058    578.32593    175.63419    41.532958    41.532958    83.065917 
   31000     1184.271    -24494.84   -25719.319   -307.29024   -872.05165    362.37803   -412.19711     41.53516     41.53516    83.070319 
   31100    1168.5533   -24495.008   -25703.235   -71.451913     143.6066    404.94868   -762.91103    41.536899    41.536899    83.073798 
   31200    1172.4826   -24495.064   -25707.355   -251.57672   -542.28931   -195.70758   -16.733279    41.538496    41.538496    83.076992 
   31300     1168.091   -24495.121   -25702.871   -130.34985   -238.87667   -364.13565    211.96277    41.538847    41.538847    83.077693 
   31400    1175.2142   -24495.113   -25710.228   -151.34266    32.231708     141.0157   -627.27539    41.538306    41.538306    83.076612 
   31500    1175.4879   -24495.064   -25710.461   -232.73844    55.728792    225.91386   -979.85797    41.537365    41.537365    83.074729 
   31600    1180.5532   -24494.976   -25715.611   -348.23046   -1041.9067    111.57222   -114.35691    41.535893    41.535893    83.071786 
   31700    1161.9125   -24494.991   -25696.353    444.30349    275.03743   -68.564152    1126.4372    41.533307    41.533307    83.066614 
   31800    1163.6547   -24494.996   -25698.159    453.01651     123.9505    649.83633    585.26271     41.53124     41.53124     83.06248 
   31900    1170.3945   -24494.935   -25705.067    249.71017   -55.551592    44.460088    760.22202    41.530351    41.530351    83.060702 
   32000    1175.9634   -24494.918   -25710.807    20.590994   -52.282045   -377.05577     491.1108    41.529955    41.529955     83.05991 
   32100    1182.7955   -24494.797    -25717.75   -113.86731    195.36769   -425.14868   -111.82093    41.530342    41.530342    83.060684 
   32200    1178.2532   -24494.693   -25712.951   -4.4867553   -327.57264    165.66279    148.44958    41.531095    41.531095    83.062189 
   32300    1172.5376   -24494.604   -25706.952    135.24468    353.84237    647.82012   -595.92845    41.532288    41.532288    83.064576 
   32400    1180.2148     -24494.5   -25714.785    50.979203   -118.60366   -141.09098    412.63225    41.533623    41.533623    83.067245 
   32500    1179.7745    -24494.44    -25714.27   -162.46328    98.144425     -382.555   -202.97926    41.534846    41.534846    83.069691 
   32600    1188.4348   -24494.399   -25723.183   -472.31188   -816.63537   -617.95825    17.657986     41.53547     41.53547     83.07094 
   32700    1166.1763   -24494.433   -25700.203    94.787641   -140.02086     441.9975   -17.613713    41.535016    41.535016    83.070032 
   32800    1182.9377   -24494.424   -25717.525   -208.34403   -966.41058     566.8033   -225.42482    41.534463    41.534463    83.068926 
   32900    1171.6453   -24494.445    -25705.87    287.22325    431.10765    35.843039    394.71907    41.533716    41.533716    83.067432 
   33000    1172.7136   -24494.456   -25706.985    100.92439   -729.49078     227.9082    804.35575    41.533334    41.533334    83.066669 
   33100    1169.0303   -24494.464   -25703.185    281.96325     322.5097    37.899362    485.48068    41.533161    41.533161    83.066322 
   33200    1176.2652   -24494.478    -25710.68    153.82393   -696.27172    567.13564    590.60786    41.533224    41.533224    83.066449 
   33300    1174.9435   -24494.519   -25709.354    83.649222    253.80014   -177.67618     174.8237    41.533725    41.533725    83.067451 
   33400    1180.3661   -24494.631   -25715.073   -19.444114   -369.19121   -20.139059    330.99793    41.534003    41.534003    83.068006 
   33500    1179.1962   -24494.795   -25714.028   -75.939022    88.012299    555.78907   -871.61844    41.534194    41.534194    83.068389 
   33600    1158.6069   -24494.818   -25692.762    452.51161    638.73074    333.65667    385.14743    41.534926    41.534926    83.069852 
   33700    1181.4808    -24494.78   -25716.375   -100.36873   -353.61955   -432.93945    485.45281    41.535919    41.535919    83.071838 
   33800    1173.6539   -24494.679    -25708.18    -88.76691   -375.65896   -111.29468    220.65291    41.536995    41.536995    83.073989 
   33900    1179.9769    -24494.57   -25714.609   -193.91342    29.723186    167.36849   -778.83194     41.53753     41.53753    83.075059 
   34000    1174.5481   -24494.547   -25708.973   -197.67885   -309.18165   -203.29526   -80.559649    41.536938    41.536938    83.073876 
   34100    1181.6182   -24494.507   -25716.244   -237.07931   -561.03113    846.83706   -997.04385    41.535997    41.535997    83.071994 
   34200    1176.3264   -24494.489   -25710.754   -39.216493   -329.66634    -197.2569    409.27376    41.534646    41.534646    83.069292 
   34300    1172.9877   -24494.388   -25707.201     159.0596    -321.5677    367.30705    431.43943    41.533772    41.533772    83.067545 
   34400    1186.7749    -24494.29   -25721.358   -126.61509    135.67229    259.75169   -775.26925    41.533519    41.533519    83.067039 
   34500    1173.3167   -24494.249   -25707.403   -70.556978   -289.78833    130.82712   -52.709724    41.533834    41.533834    83.067669 
   34600    1175.5375   -24494.145   -25709.594   -137.92475   -442.51205    113.27116   -84.533372    41.534709    41.534709    83.069418 
   34700    1181.2444   -24494.053   -25715.403   -325.78555    -776.0032      -80.329   -121.02444    41.535195    41.535195    83.070389 
   34800    1177.7737   -24494.025   -25711.786   -135.02672   -100.38464    193.60639   -498.30192    41.535111    41.535111    83.070221 
   34900    1171.1282   -24493.956   -25704.847    3.0599293   -539.40125    585.87882   -37.297785    41.535371    41.535371    83.070742 
   35000    1174.8093   -24493.809   -25708.505   -120.21064    307.06341   -638.55717   -29.138168    41.535709    41.535709    83.071418 
   35100    1169.6185   -24493.601   -25702.931   -18.882816    49.654967     179.9943   -286.29771    41.535716    41.535716    83.071432 
   35200    1156.2368   -24493.292   -25688.785    425.94134    1163.2414   -754.61206    869.19466    41.535605    41.535605     83.07121 
   35300    1163.2463   -24492.802   -25695.543    331.27524    334.37674    365.22436    294.22463    41.536579    41.536579    83.073157 
   35400    1177.8792   -24492.273   -25710.144   -194.61689   -52.075307   -2.6737282   -529.10164    41.538006    41.538006    83.076013 
   35500    1174.7151   -24491.884   -25706.483   -127.50421    109.10582   -530.63436    39.015921    41.538486    41.538486    83.076971 
   35600    1176.6514   -24491.641   -25708.242   -170.94092   -175.12823    95.939011   -433.63354    41.538003    41.538003    83.076005 
   35700    1180.1236   -24491.464   -25711.655   -89.707578    72.014233   -88.581243   -252.55572    41.536912    41.536912    83.073825 
   35800     1168.566   -24491.247   -25699.488     97.07865   -268.13982   -187.43845    746.81422    41.535859    41.535859    83.071719 
   35900    1176.4296   -24491.023   -25707.394   -89.477686   -18.090953   -6.4196306   -243.92247     41.53494     41.53494     83.06988 
   36000    1178.3414   -24490.779   -25709.128    47.345869    1287.2055   -826.97515   -318.19271     41.53423     41.53423     83.06846 
   36100     1175.357   -24490.547   -25705.809    230.52447   -36.611184    593.24473    134.93985    41.534132    41.534132    83.068264 
   36200    1180.8384    -24490.41    -25711.34   -43.862243    266.73712   -944.58635    546.26249    41.534645    41.534645     83.06929 
   36300    1174.6514   -24490.387    -25704.92     109.3137   -90.158227   -333.33924    751.43857    41.535281    41.535281    83.070562 
   36400    1177.3918   -24490.334     -25707.7   -21.568685   -732.73969   -66.396153    734.42979    41.536558    41.536558    83.073116 
   36500    1170.5533   -24490.408   -25700.704    145.95175    60.750057    279.76997    97.335215      41.5372      41.5372    83.074399 
   36600    1182.3057   -24490.485   -25712.932   -382.45071    -753.0306   -812.02696    417.70544    41.537746    41.537746    83.075491 
   36700    1177.5862   -24490.515   -25708.083   -106.36428   -199.87467   -373.51257    254.29441    41.537719    41.537719    83.075438 
   36800    1166.7287   -24490.619    -25696.96    151.79966   -9.8840493    169.28354    295.99948    41.537186    41.537186    83.074373 
   36900    1179.8258   -24490.689   -25710.572   -156.76078    414.55001   -385.78721   -499.04513    41.536652    41.536652    83.073304 
   37000     1178.006   -24490.775   -25708.777    136.48045    206.58296    245.38556   -42.527172    41.535923    41.535923    83.071847 
   37100    1177.2132   -24490.812   -25707.994    69.258694   -65.159186   -3.9644037    276.89967    41.535932    41.535932    83.071864 
   37200    1186.8055   -24490.939   -25718.039   -215.61662    61.235456    -1134.064    425.97869    41.535771    41.535771    83.071542 
   37300    1168.9723   -24491.071   -25699.732    122.80687   -2.3100171    160.30688    210.42373    41.535657    41.535657    83.071313 
   37400    1186.5993   -24491.099   -25717.986   -305.73354   -696.37654    78.352032   -299.17613     41.53625     41.53625      83.0725 
   37500    1181.3006   -24491.171   -25712.579   -157.32925   -102.01475    286.14904   -656.12205    41.536645    41.536645    83.073289 
   37600    1175.7176   -24491.303   -25706.938    95.594102    154.23797    467.47808   -334.93374    41.536829    41.536829    83.073659 
   37700    1167.9876   -24491.465   -25699.108    233.36919    326.31994     36.02135    337.76627    41.537082    41.537082    83.074165 
   37800    1165.0695    -24491.57   -25696.196    313.92569    322.74152    442.91444    176.12112    41.537509    41.537509    83.075018 
   37900    1180.8723   -24491.614    -25712.58   -330.30018   -290.82944    -1005.028    304.95686    41.538045    41.538045     83.07609 
   38000    1166.0669   -24491.646   -25697.303    101.39959   -864.67697    17.067631    1151.8081    41.537915    41.537915    83.075831 
   38100    1180.7589   -24491.646   -25712.494   -316.93777   -452.08049    -487.7616    -10.97121    41.537302    41.537302    83.074604 
   38200    1193.6491   -24491.702   -25725.877   -520.92843   -500.48455   -592.61816   -469.68259    41.535725    41.535725    83.071451 
   38300    1168.9402   -24491.914   -25700.542    309.73944    482.26125   -25.996949    472.95402    41.533221    41.533221    83.066443 
   38400    1165.7368   -24492.065   -25697.381    332.84719    589.72207    327.73514    81.084357    41.531616    41.531616    83.063233 
   38500    1163.7586   -24492.114   -25695.384    638.11591     746.2492    88.671133    1079.4274     41.53143     41.53143    83.062861 
   38600    1181.6499   -24492.125   -25713.894    118.17956    220.45328    -293.0415    427.12689    41.532851    41.532851    83.065702 
   38700    1174.7063   -24492.233   -25706.823    87.121856   -179.31891    748.51982   -307.83535    41.534635    41.534635    83.069271 
   38800    1178.4511   -24492.278    -25710.74    113.13875    322.94309    69.380043   -52.906878    41.536877    41.536877    83.073754 
   38900    1167.9846   -24492.372   -25700.012   -23.729494    230.70514   -80.040856   -221.85277    41.538749    41.538749    83.077497 
   39000    1177.3857   -24492.543   -25709.903   -418.01236   -221.19673   -91.474286   -941.36607    41.539529    41.539529    83.079057 
   39100    1162.0965   -24492.652   -25694.204     168.1456    79.873763    42.904685    381.65835    41.539349    41.539349    83.078697 
   39200    1172.4603   -24492.748   -25705.015    56.153112   -114.27723    185.77393    96.962639    41.538553    41.538553    83.077106 
   39300     1194.379   -24492.781   -25727.711   -629.69148   -905.76768   -838.13352   -145.17323    41.537578    41.537578    83.075156 
   39400    1185.0058   -24492.883   -25718.122   -290.79233   -995.63604    392.97918   -269.72013    41.535477    41.535477    83.070953 
   39500    1162.2323   -24493.002   -25694.694    325.34837    157.07582    799.64889     19.32041    41.532939    41.532939    83.065877 
   39600    1175.1031   -24493.051   -25708.052     136.5191    196.77851    623.46803   -410.68924    41.531156    41.531156    83.062313 
   39700    1162.9821   -24493.063   -25695.531    587.82988    436.36739    994.60877    332.51348    41.530119    41.530119    83.060238 
   39800    1190.0116   -24493.064   -25723.478   -414.05126   -615.99616    -705.2634    79.105781    41.530188    41.530188    83.060377 
   39900    1176.0177   -24493.096   -25709.041    119.91532    263.73109    -126.1935    222.20837    41.530312    41.530312    83.060624 
   40000    1172.1864   -24493.124   -25705.108    403.84055   -202.71324    1033.9576    380.27732     41.53123     41.53123    83.062459 
   40100    1181.9161   -24493.157   -25715.202   -91.349283    172.53291   -244.09818   -202.48259    41.532918    41.532918    83.065835 
   40200    1165.0046   -24493.246   -25697.804    259.94587   -234.78937   -94.038585    1108.6656    41.534803    41.534803    83.069606 
   40300    1189.8828   -24493.292   -25723.574   -343.76632   -412.45034   -626.12809     7.279485    41.536667    41.536667    83.073334 
   40400     1170.549   -24493.494   -25703.785    20.311855    77.709431   -320.71207     303.9382    41.537335    41.537335     83.07467 
   40500    1170.5219    -24493.67   -25703.933   -100.48509    1035.4114   -1160.0592   -176.80743    41.537541    41.537541    83.075081 
   40600    1159.5872   -24493.733    -25692.69    288.69313    487.75895   -155.78911    534.10955    41.537663    41.537663    83.075326 
   40700    1178.9803   -24493.692   -25712.701   -322.78233   -437.01205   -137.57272   -393.76221    41.537808    41.537808    83.075617 
   40800    1175.9417   -24493.641   -25709.508   -157.48938   -773.89663    300.47159   0.95690519    41.537287    41.537287    83.074573 
   40900     1174.482   -24493.623    -25707.98   -83.312387     53.21822   -57.835228   -245.32015     41.53586     41.53586     83.07172 
   41000    1173.8059   -24493.635   -25707.294    64.898222    202.62866   -151.74404    143.81005    41.533791    41.533791    83.067582 
   41100    1176.6541   -24493.612   -25710.216    2.8623677   -511.79786   -80.020513    600.40548    41.532056    41.532056    83.064111 
   41200    1158.9603   -24493.497   -25691.806    453.26803    503.07041    160.04746    696.68621    41.531242    41.531242    83.062485 
   41300    1175.0887   -24493.337   -25708.323     331.1735    576.66013   -13.452116    430.31248    41.531254    41.531254    83.062508 
   41400    1177.4221   -24493.218   -25710.615    218.16979    284.44863    434.46835   -64.407609    41.532168    41.532168    83.064336 
   41500     1169.328    -24493.16   -25702.189    240.19908   -69.276401    -103.7032    893.57684    41.533746    41.533746    83.067492 
   41600    1179.5393   -24493.123    -25712.71   -135.10753    394.23481    82.674058   -882.23144    41.535685    41.535685    83.071369 
   41700     1162.545   -24493.023   -25695.039    208.16048   -348.89637    155.86929    817.50851    41.537531    41.537531    83.075062 
   41800    1178.3601   -24492.848   -25711.216   -308.80668    265.79984   -761.85385   -430.36604    41.539275    41.539275    83.078549 
   41900    1172.0314   -24492.734   -25704.558   -50.447408    61.263426    -289.4667    76.861049    41.539712    41.539712    83.079425 
   42000    1172.7306   -24492.629   -25705.176   -54.845241    635.42035   -551.94497    -248.0111    41.539413    41.539413    83.078826 
   42100    1192.2757   -24492.452   -25725.208   -535.77607    44.501993   -591.17144   -1060.6588    41.538835    41.538835    83.077671 
   42200    1182.1927   -24492.355   -25714.686   -349.43413    337.95336   -1243.9325   -142.32322    41.537256    41.537256    83.074512 
   42300    1155.8535   -24492.322   -25687.419     548.7668    1412.1622   -470.90194    705.04015    41.535048    41.535048    83.070096 
   42400    1176.8563   -24492.177    -25708.99    -76.54133    -114.9325   -289.62723    174.93574    41.533761    41.533761    83.067522 
   42500     1169.401   -24492.067   -25701.171    410.60333    390.41599    261.43857    579.95542    41.532329    41.532329    83.064657 
   42600     1174.078   -24491.888   -25705.829    105.33021   -162.35745   -252.53069    730.87878    41.531998    41.531998    83.063996 
   42700    1161.4728   -24491.704   -25692.611    346.20344    110.18533    622.38456    306.04042    41.532551    41.532551    83.065102 
   42800     1167.688    -24491.53   -25698.863    226.59246    447.56114    420.48145   -188.26521    41.533861    41.533861    83.067722 
   42900    1188.6182   -24491.375   -25720.349   -280.06564   -281.57923   -228.77608   -329.84162    41.535504    41.535504    83.071009 
   43000    1180.2528   -24491.283   -25711.607   -60.061788   -46.128406    311.33113   -445.38808    41.537013    41.537013    83.074026 
   43100    1172.6282   -24491.131   -25703.572   -48.427435   -882.00966    258.44517    478.28218    41.539071    41.539071    83.078143 
   43200    1182.3344   -24491.004   -25713.481   -339.38938    -117.7948   -1099.6957    199.32232    41.540751    41.540751    83.081502 
   43300    1175.2287   -24491.001   -25706.131   -131.84194   -338.50285    -179.2823    122.25932    41.541114    41.541114    83.082228 
   43400    1170.5054   -24491.094   -25701.341   -73.097918    388.31321   -586.12681   -21.480155    41.540035    41.540035     83.08007 
   43500    1176.6904   -24491.224   -25707.865   -145.76125   -493.23184   -300.13996    356.08804    41.537906    41.537906    83.075811 
   43600    1186.1369   -24491.256   -25717.664   -344.93264   -305.56596   -752.57484    23.342873     41.53603     41.53603    83.072059 
   43700    1166.9833   -24491.268   -25697.873    217.54455    201.80978    64.504742    386.31912    41.534396    41.534396    83.068793 
   43800     1175.389   -24491.144    -25706.44    112.37939    421.35822    179.64941   -263.86947    41.534134    41.534134    83.068269 
   43900    1176.2656   -24491.001   -25707.203    60.009726    278.94354   -47.532128    -51.38223    41.534808    41.534808    83.069615 
   44000    1187.1737   -24490.814   -25718.294   -337.41772   -307.64581   -692.40891   -12.198437    41.535988    41.535988    83.071975 
   44100    1177.2513   -24490.686   -25707.907   -121.80156    448.52318   -53.615769   -760.31208    41.536655    41.536655     83.07331 
   44200    1179.8378   -24490.619   -25710.515   -156.05578    723.35341   -667.23914   -524.28161    41.536812    41.536812    83.073625 
   44300    1166.3064   -24490.571   -25696.476    166.37903    177.40362   -240.51516    562.24864    41.536701    41.536701    83.073402 
   44400    1183.9749   -24490.535   -25714.709   -289.34954    159.30743   -1144.9204     117.5643    41.536624    41.536624    83.073248 
   44500    1165.1791   -24490.514   -25695.253    269.90714    141.67265    0.6448449    667.40394    41.536208    41.536208    83.072416 
   44600    1180.3427   -24490.506   -25710.924   -189.12295   -184.97402   -509.48342     127.0886    41.535702    41.535702    83.071404 
   44700    1171.3883   -24490.526   -25701.685    251.90097    125.38853    311.45956    318.85483    41.534974    41.534974    83.069949 
   44800    1173.5258   -24490.537   -25703.907    211.87907    639.74386   -80.559127    76.452493    41.534924    41.534924    83.069848 
   44900    1187.6765   -24490.534   -25718.535   -258.94252    -150.4993   -153.08029   -473.24798    41.535468    41.535468    83.070935 
   45000    1184.8685   -24490.612   -25715.709   -238.41599    -45.03195   -651.70659   -18.509431    41.535676    41.535676    83.071353 
   45100     1185.731   -24490.651    -25716.64    -180.0474    57.127448    89.323898   -686.59354    41.536135    41.536135     83.07227 
   45200    1181.6524    -24490.68   -25712.451   -125.85311   -284.21528    344.28039   -437.62445    41.536828    41.536828    83.073657 
   45300    1168.1621   -24490.676   -25698.499    185.60294   -115.93229    416.19494    256.54617    41.537762    41.537762    83.075525 
   45400    1177.7503   -24490.618   -25708.355    -98.57983    -442.5825    424.46625   -277.62324    41.538727    41.538727    83.077453 
   45500    1175.0924   -24490.536   -25705.525   -173.89047    142.20048    310.08871   -973.96062    41.539305    41.539305     83.07861 
   45600    1169.8205   -24490.499   -25700.038    4.4345345    196.86893   -282.90183    99.336501    41.538602    41.538602    83.077205 
   45700    1173.0657   -24490.445   -25703.339   -65.202087   -241.24345    316.32495   -270.68775    41.537255    41.537255    83.074511 
   45800     1172.674   -24490.297   -25702.785    135.67808    48.643141    731.08387   -372.69277    41.536299    41.536299    83.072597 
   45900    1172.4675   -24490.102   -25702.377    189.62373    210.21018    669.98125   -311.32024    41.536339    41.536339    83.072678 
   46000    1174.0274   -24490.005   -25703.893     155.4636   -82.903589   -95.110134    644.40452    41.536431    41.536431    83.072863 
   46100    1179.1908   -24489.959   -25709.186   -171.14361   -570.09099   -295.72284      352.383    41.536739    41.536739    83.073478 
   46200    1169.4092   -24489.961   -25699.074    49.926458   -500.34732    465.34652    184.78017    41.536519    41.536519    83.073037 
   46300    1188.5558   -24489.946   -25718.856    -296.8973   -1019.6259    10.634617     118.2994    41.536271    41.536271    83.072542 
   46400    1177.6054   -24490.003   -25707.591    96.702201   -151.70109    143.19945    298.60824    41.535553    41.535553    83.071106 
   46500    1165.3879   -24490.045       -25695    215.56596      1092.63   -686.74765    240.81555    41.535268    41.535268    83.070537 
   46600    1186.1555    -24490.16   -25716.588   -267.30137   -684.92364   -344.26536     227.2849    41.534566    41.534566    83.069133 
   46700    1189.8101   -24490.355   -25720.562   -29.070994    16.459556   -157.42057    53.748029    41.533425    41.533425     83.06685 
   46800    1177.3399   -24490.522   -25707.834    65.101758    368.55496    122.78765   -296.03734    41.533244    41.533244    83.066488 
   46900    1188.3894   -24490.674   -25719.411   -26.101194   -452.74881    786.65066   -412.20543    41.533829    41.533829    83.067658 
   47000    1179.3639   -24490.816   -25710.221    -151.3191   -98.547986   -165.72101   -189.68829    41.535346    41.535346    83.070692 
   47100    1191.7114   -24490.936   -25723.109   -351.76279   -381.34894   -522.03509   -151.90433    41.537026    41.537026    83.074052 
   47200    1172.5121   -24491.144   -25703.465   -5.5887636    155.50489   -750.08901    577.81783    41.537945    41.537945     83.07589 
   47300    1175.3572   -24491.339   -25706.601   -191.02463   -358.96659    294.73668   -508.84398    41.538432    41.538432    83.076863 
   47400    1167.9467   -24491.418   -25699.018    72.447706   -87.711341    457.55519   -152.50073    41.538638    41.538638    83.077275 
   47500    1175.4991   -24491.429   -25706.839   -132.61405    6.3061817    228.39661   -632.54494    41.538574    41.538574    83.077149 
   47600    1181.6979   -24491.491    -25713.31   -178.18333   -20.422058   -500.14149   -13.986438    41.537889    41.537889    83.075778 
   47700    1179.9108   -24491.589    -25711.56   -206.49073   -671.32135    538.25767   -486.40852     41.53684     41.53684     83.07368 
   47800     1184.842   -24491.691   -25716.761   -209.61981    212.21293   -587.51997   -253.55239    41.535246    41.535246    83.070491 
   47900     1177.046   -24491.829   -25708.838    4.9100408    107.73138    256.35359   -349.35485    41.533441    41.533441    83.066882 
   48000    1169.8877   -24491.969   -25701.577    344.93235    503.50731    526.62406    4.6656684    41.532132    41.532132    83.064264 
   48100    1170.5596   -24492.089   -25702.391     274.9159    186.87378    486.27169    151.60224    41.531732    41.531732    83.063464 
   48200    1169.2963    -24492.23   -25701.226    171.25471    162.86627    639.23753   -288.33968    41.531684    41.531684    83.063369 
   48300    1156.8687   -24492.231   -25688.378    537.49371    409.45027     897.3095    305.72136    41.532485    41.532485    83.064969 
   48400    1184.2699   -24492.136   -25716.614   -98.180182   -540.20556   -387.10462    632.76963    41.534237    41.534237    83.068473 
   48500    1183.5672   -24492.149   -25715.901   -206.89126   -576.66482   -95.501182    51.492218    41.535735    41.535735     83.07147 
   48600    1174.5778   -24492.196   -25706.653     74.82042   -267.07618    306.93249    184.60496    41.537216    41.537216    83.074432 
   48700    1190.3687   -24492.198   -25722.982   -544.06202    249.34213   -1148.9876   -732.54059    41.538834    41.538834    83.077667 
   48800    1172.4469   -24492.191   -25704.444   -102.38721    -134.2788   -139.89325   -32.989593    41.539687    41.539687    83.079374 
   48900    1173.1137   -24492.235   -25705.178   -99.386517    306.58547   -672.90975     68.16472    41.539498    41.539498    83.078995 
   49000    1176.7351   -24492.299   -25708.986   -19.647878    164.39047    328.94845   -552.28256    41.538538    41.538538    83.077076 
   49100    1183.4563    -24492.44   -25716.077   -285.67121   -6.8361202   -610.44904   -239.72846    41.536962    41.536962    83.073924 
   49200    1173.4963   -24492.606   -25705.944   -57.946314    342.36086   -210.51901   -305.68079    41.534749    41.534749    83.069497 
   49300    1168.7943   -24492.731   -25701.208    206.63028    320.96923    9.8262846    289.09533    41.532567    41.532567    83.065133 
   49400    1174.8349   -24492.811   -25707.534    311.18517    343.49802    466.34704    123.71046    41.531224    41.531224    83.062448 
   49500    1180.2981   -24492.818   -25713.189   -20.432129    169.54089     -777.125    546.28772    41.531358    41.531358    83.062716 
   49600    1165.3881   -24492.889   -25697.844    223.63911   -60.073737    645.71996    85.271111    41.531744    41.531744    83.063488 
   49700    1178.6597   -24492.966   -25711.644    98.056136   -203.91133    555.84774   -57.768001     41.53257     41.53257     83.06514 
   49800    1189.2574   -24493.088   -25722.723   -267.20323   -180.95454   -20.335022   -600.32014    41.533964    41.533964    83.067928 
   49900    1184.8482   -24493.189   -25718.265   -428.36237   -74.126326   -582.82898   -628.13182    41.535666    41.535666    83.071332 
   50000    1168.3517   -24493.286   -25701.305    201.86544    84.437293    179.05988    342.09916    41.536727    41.536727    83.073454 
Loop time of 1448.52 on 1 procs for 50000 steps with 8000 atoms

Pair  time (%) = 1307.85 (90.2881)
Neigh time (%) = 99.3926 (6.86164)
Comm  time (%) = 8.58006 (0.592331)
Outpt time (%) = 0.908453 (0.0627157)
Other time (%) = 31.798 (2.1952)

Nlocal:    8000 ave 8000 max 8000 min
Histogram: 1 0 0 0 0 0 0 0 0 0
Nghost:    9041 ave 9041 max 9041 min
Histogram: 1 0 0 0 0 0 0 0 0 0
Neighs:    287566 ave 287566 max 287566 min
Histogram: 1 0 0 0 0 0 0 0 0 0

Total # of neighbors = 287566
Ave neighs/atom = 35.9457
Neighbor list builds = 5000
Dangerous builds = 0
unfix		1

# Melt half the system
region  liquid block INF INF INF INF INF ${nzhalf}
region  liquid block INF INF INF INF INF 10
group	liquid_group region liquid
4002 atoms in group liquid_group

# Heat up one side to Tmelt to make sure it is melted
fix 2 liquid_group npt temp ${Tmelt} ${Tmelt} 1 z 0 0 10 drag 1.0
fix 2 liquid_group npt temp 2000 ${Tmelt} 1 z 0 0 10 drag 1.0
fix 2 liquid_group npt temp 2000 2000 1 z 0 0 10 drag 1.0
run		${eqsteps}
run		50000
Memory usage per processor = 5.95825 Mbytes
Step Temp TotEng PotEng Press Pxx Pyy Pzz Lx Ly Lz 
   50000    1168.3517   -24493.286   -25701.305    201.86544    84.437293    179.05988    342.09916    41.536727    41.536727    83.073454 
   50100    1185.8931   -24490.976   -25717.133   -289.96316    151.85307   -387.67066   -634.07189    41.536727    41.536727     83.07341 
   50200    1174.8452   -24485.236    -25699.97    241.43713    619.91223    16.947575    87.451581    41.536727    41.536727    83.073154 
   50300    1185.4651   -24479.095   -25704.809    128.64156    679.86068    26.252319   -320.18833    41.536727    41.536727    83.072865 
   50400     1182.873   -24473.471   -25696.504    437.50445    771.73448    458.20134    82.577535    41.536727    41.536727      83.0726 
   50500    1184.3996   -24467.568    -25692.18    547.63463    1053.2866   -95.865655    685.48293    41.536727    41.536727    83.072528 
   50600     1189.285     -24461.1   -25690.763    669.92998    1380.9789    393.33822    235.47282    41.536727    41.536727    83.072764 
   50700    1192.4698   -24454.387   -25687.343    805.15298    569.82883    723.38707     1122.243    41.536727    41.536727    83.073256 
   50800    1198.4837   -24447.585   -25686.759    916.12649    1539.8295    563.81733    644.73261    41.536727    41.536727    83.074234 
   50900    1205.7502   -24440.687   -25687.375    847.17291     1442.742     330.5646    768.21213    41.536727    41.536727    83.075578 
   51000     1205.806   -24433.706   -25680.452    1124.5447    1395.1569    909.62094    1068.8563    41.536727    41.536727    83.077454 
   51100    1200.1034   -24426.677   -25667.526     1313.783    1934.8105    1064.9147    941.62389    41.536727    41.536727    83.079891 
   51200    1199.6528   -24419.569   -25659.952    1647.3608    2372.6414    1130.0529    1439.3881    41.536727    41.536727    83.082825 
   51300    1201.0488   -24412.507   -25654.334    1742.5136    1998.4334    1386.5944     1842.513    41.536727    41.536727     83.08641 
   51400    1215.6465   -24405.414   -25662.334    1667.0123     2000.602     1762.516    1237.9187    41.536727    41.536727    83.090813 
   51500     1217.683   -24398.176   -25657.202    1713.0102    1654.9914    1653.8609    1830.1785    41.536727    41.536727    83.095855 
   51600     1216.069   -24391.009   -25648.366     1954.461    1939.5815    2094.2582    1829.5432    41.536727    41.536727    83.101668 
   51700    1219.9228   -24383.804   -25645.146    2037.2821    2225.9429    1785.2464     2100.657    41.536727    41.536727    83.108385 
   51800    1216.4378   -24376.557   -25634.296    2240.4125     2865.592    2126.0372    1729.6084    41.536727    41.536727    83.116181 
   51900    1226.4057   -24369.348   -25637.392    2156.9646     2494.921    1273.1309    2702.8418    41.536727    41.536727    83.125018 
   52000    1226.8094   -24362.098    -25630.56    2233.6506    1980.6704    2267.6425    2452.6389    41.536727    41.536727    83.135065 
   52100    1228.6253   -24354.784   -25625.123    2430.1928    2932.4181    2135.2953    2222.8649    41.536727    41.536727    83.146203 
   52200    1229.3169   -24347.476    -25618.53     2501.806    2586.5764    2217.2341    2701.6074    41.536727    41.536727    83.158339 
   52300    1230.4212   -24340.126   -25612.323    2777.4592    3086.2082    2386.8393    2859.3302    41.536727    41.536727    83.171563 
   52400    1232.1329   -24332.805   -25606.771    2664.3254    2874.2164    2742.1544    2376.6055    41.536727    41.536727    83.185969 
   52500    1257.0219   -24325.382   -25625.083    2287.8916    2952.3688    1970.2812    1941.0248    41.536727    41.536727    83.201539 
   52600    1242.6566   -24318.056   -25602.903    2732.7358    3038.6962    2634.6192     2524.892    41.536727    41.536727      83.2181 
   52700    1247.9959   -24310.667   -25601.035    2745.4408    3722.9904    2422.5815    2090.7506    41.536727    41.536727    83.235614 
   52800    1248.6081   -24303.275   -25594.276    2865.9619    2809.4547    2822.7147    2965.7162    41.536727    41.536727    83.254094 
   52900    1257.9375   -24295.844   -25596.491    2473.7597     2799.591    2424.8309    2196.8572    41.536727    41.536727    83.273681 
   53000    1241.6596   -24288.456   -25572.272    3180.8175    3835.0093     2385.022    3322.4211    41.536727    41.536727    83.294127 
   53100     1253.299   -24280.972   -25576.822    2896.2181    3405.6191    2972.7474    2310.2877    41.536727    41.536727    83.315558 
   53200    1254.9286   -24273.571   -25571.107    2898.9583    2605.1489    2767.6134    3324.1126    41.536727    41.536727    83.337883 
   53300    1260.9025   -24266.066   -25569.779    2826.1958    3636.7112    2407.4743    2434.4018    41.536727    41.536727    83.361244 
   53400     1262.831   -24258.545   -25564.252    2873.6614    3133.2883    2523.3382    2964.3578    41.536727    41.536727    83.385328 
   53500    1269.8157   -24251.002    -25563.93    2757.8638    2949.6751    2685.0168    2638.8996    41.536727    41.536727    83.410266 
   53600    1279.9802   -24243.462     -25566.9    2363.9822    2843.6852    2614.8168    1633.4445    41.536727    41.536727    83.435934 
   53700    1264.9677   -24235.873   -25543.789      2994.55    3160.4287    3336.3787    2486.8428    41.536727    41.536727    83.462148 
   53800    1281.2931   -24228.345    -25553.14    2299.0133    2981.0293     2216.716    1699.2947    41.536727    41.536727    83.488913 
   53900    1278.5679   -24220.726   -25542.703    2579.7251    3309.1589    2712.4556    1717.5607    41.536727    41.536727    83.516015 
   54000    1289.2786   -24213.143   -25546.195    2271.5364    2938.1779    1992.4745    1883.9568    41.536727    41.536727    83.543343 
   54100    1273.2929   -24205.617   -25522.141    2812.6204    2947.0293    3021.1784    2469.6536    41.536727    41.536727    83.571011 
   54200    1289.6008   -24197.997   -25531.382    2606.6865     2690.023    2769.3916    2360.6449    41.536727    41.536727    83.599135 
   54300     1275.954   -24190.402   -25509.677    2907.0449    3327.6517    2658.7668    2734.7162    41.536727    41.536727    83.627718 
   54400    1281.8444   -24182.874   -25508.239    2666.9765    3083.2335    3304.7491    1612.9468    41.536727    41.536727     83.65681 
   54500    1296.0977   -24175.207   -25515.309    2355.6564    2827.1741    2621.5999    1618.1952    41.536727    41.536727    83.685953 
   54600    1297.2482   -24167.533   -25508.825    2226.2481    1793.5771     2215.855    2669.3123    41.536727    41.536727    83.715172 
   54700    1288.9818   -24159.918   -25492.663    2476.0515    3014.3766    2711.4195    1702.3584    41.536727    41.536727    83.744637 
[...]
  336300    1017.5977   -24221.031   -25273.178    -179.0045    136.33045   -292.14452   -381.19943    41.358438    41.358438    85.480046 
  336400    1021.1706   -24221.038   -25276.879    304.97995    590.44683    633.93712    -309.4441    41.358269    41.358269    85.436705 
  336500    1017.2661   -24221.032   -25272.836    543.72394   -113.20459    1036.7477    707.62869     41.35832     41.35832    85.392554 
  336600    1021.3684   -24221.055   -25277.101    293.98959   -858.86776     642.0315     1098.805     41.35854     41.35854    85.405558 
  336700    1026.8692   -24221.093   -25282.827   -209.73073   -168.18563   -561.06757    100.06101    41.358725    41.358725     85.49374 
  336800    1020.5612   -24221.068   -25276.279   -639.72527   -665.48328    -430.1251   -823.56743    41.358791    41.358791    85.569542 
  336900    1025.0409    -24221.06   -25280.903   -817.40955   -1251.3082   -1248.9319    48.011424    41.358609    41.358609    85.568982 
  337000    1022.9671    -24221.08   -25278.778   -511.61428   -557.62679   -722.92928   -254.28676    41.358028    41.358028    85.533243 
  337100    1006.9422    -24221.09    -25262.22    578.45626    431.45717    1245.6054    58.306241    41.357255    41.357255    85.464666 
  337200    1024.4227   -24221.076    -25280.28    326.98426    288.44622    158.82482    533.68173    41.356701    41.356701    85.414997 
  337300    1002.5285   -24221.062   -25257.629    810.17322     568.6638    922.77383    939.08202    41.356366    41.356366    85.413728 
  337400     1025.236   -24221.104   -25281.149   -43.814221    514.85651   -1153.5992    507.30007     41.35617     41.35617    85.454633 
  337500    1015.4281   -24221.091   -25270.995   -230.07096   -453.16102    -484.6465    247.59465     41.35589     41.35589    85.516941 
  337600    1009.1049    -24221.08   -25264.446   -196.14409   -129.03352    127.25771   -586.65647    41.355432    41.355432    85.548572 
  337700    1024.5017   -24221.141   -25280.426   -251.78607   -394.08765    514.83537   -876.10592    41.354956    41.354956    85.502278 
  337800    1032.9845   -24221.189   -25289.246    188.37711    749.03924   -105.64551   -78.262412    41.354634    41.354634    85.397284 
  337900    1026.9936   -24221.143   -25283.005    717.90097    470.79515     758.5361    924.37167    41.354567    41.354567    85.309725 
  338000    1018.3275   -24221.242   -25274.143    1050.9175    1672.6254    300.30445    1179.8228    41.354707    41.354707    85.351388 
  338100    1021.5764   -24221.268   -25277.528   -328.69941    364.84594   -810.85427    -540.0899    41.355066    41.355066    85.493163 
  338200    1020.6445   -24221.192   -25276.489    -788.5483   -477.22057   -263.67257   -1624.7518    41.355387    41.355387    85.569873 
  338300    1026.5023   -24221.214   -25282.568   -728.40853   -199.16721   -880.97295   -1105.0854    41.355506    41.355506    85.540511 
  338400     1020.995   -24221.216   -25276.876    78.352815    240.57774   -866.45614    860.93685    41.355361    41.355361    85.468295 
  338500    1020.7748   -24221.218    -25276.65   -85.631782   -656.41699   -138.39332    537.91496     41.35506     41.35506     85.46089 
  338600    1018.3942   -24221.234   -25274.205   -166.99362   -1037.3734    198.22057    338.17199    41.354674    41.354674    85.514409 
  338700    1013.1559   -24221.224   -25268.778   -429.61197    -10.07864    -677.8681   -600.88918    41.354142    41.354142    85.573283 
  338800    1016.6365   -24221.224   -25272.377   -623.52882   -1598.9914   -285.26752    13.672461    41.353426    41.353426    85.573414 
  338900    1013.9523   -24221.259   -25269.636   -315.96398   -1024.5924   -528.62242    605.32292    41.352453    41.352453    85.526604 
  339000     1035.707   -24221.257   -25292.128   -175.38934   -465.78855   -170.34235    109.96288     41.35135     41.35135    85.467563 
  339100     1023.739   -24221.244   -25279.741    208.39852   -243.73874    144.13691    724.79738     41.35038     41.35038    85.425774 
  339200    1020.7142   -24221.241    -25276.61    362.89124     748.2812    399.58085   -59.188338    41.349659    41.349659    85.425646 
  339300    1020.7507   -24221.263    -25276.67    166.17417    1606.5949   -273.40908   -834.66335    41.349232    41.349232    85.458606 
  339400    1028.2017   -24221.249    -25284.36   -123.32318    500.21084   -1206.9714    336.79107    41.348991    41.348991    85.481231 
  339500    1020.3397    -24221.25   -25276.233   -219.46479   -955.28055    138.92312    157.96305     41.34868     41.34868    85.512685 
  339600    1009.2979   -24221.249   -25264.815   -255.71575    689.16211   -742.62783   -713.68154     41.34824     41.34824     85.52155 
  339700    1023.8997   -24221.259   -25279.922    73.404757    414.16932    150.23279   -344.18784    41.347787    41.347787    85.478183 
  339800    1023.0417   -24221.263   -25279.039    481.87119    1226.1178    195.41022    24.085565    41.347478    41.347478      85.4281 
  339900     1020.295    -24221.26   -25276.196    639.50683    925.72877    440.89231    551.89943    41.347488    41.347488    85.405767 
  340000    1025.5987    -24221.26    -25281.68    393.50509    344.10465   -73.961072    910.37171    41.347799    41.347799    85.422314 
  340100    1031.1229   -24221.268     -25287.4   -107.80275    58.175582   -259.90425    -121.6796    41.348212    41.348212    85.457797 
  340200    1018.6681   -24221.283   -25274.537     260.1587    582.54414   -407.30166    605.23363    41.348598    41.348598     85.49918 
  340300    1021.1365    -24221.28   -25277.086   -478.83987   -448.18653    7.4208008   -995.75389    41.348932    41.348932    85.562609 
  340400    1012.2042   -24221.266   -25267.836   -86.280945   -362.49365    76.299726    27.351088    41.349101    41.349101    85.559946 
  340500    1025.1086   -24221.286   -25281.199   -347.12581   -669.35305   -240.84796   -131.17642    41.349075    41.349075    85.526124 
  340600     1013.854   -24221.269   -25269.545   -286.41018   -296.09928   -731.39251    168.26126    41.348881    41.348881    85.506877 
  340700    1027.7793   -24221.275   -25283.949   -353.23156   -142.07842   -403.98862   -513.62765    41.348563    41.348563     85.50489 
  340800    1035.2285   -24221.306   -25291.682   -208.97284   -281.68905    318.46379   -663.69327    41.348236    41.348236    85.454606 
  340900    1035.4968   -24221.301   -25291.955    233.22625    608.07297   -398.32699    489.93277    41.348043    41.348043    85.385369 
  341000    1023.9991    -24221.29   -25280.055    758.97574    1677.4589    137.80148    461.66686    41.348008    41.348008    85.365047 
  341100    1030.5939   -24221.287   -25286.872    347.13351    1107.8602    189.29167   -255.75138    41.348363    41.348363    85.370868 
  341200    1039.0549   -24221.299   -25295.632    44.133906   -32.275142    53.386493    111.29037    41.348984    41.348984    85.389544 
  341300    1018.1996   -24221.341    -25274.11    154.22266    268.23551   -252.38393    446.81642    41.349713    41.349713    85.444648 
  341400    1020.4264   -24221.312   -25276.383   -134.65592   -8.3394242    215.20038   -610.82872    41.350417    41.350417    85.514777 
  341500    1010.4345   -24221.321   -25266.062    155.26218    409.92914    263.78771   -207.93031    41.351005    41.351005    85.503068 
  341600    1024.4941   -24221.332   -25280.609   -63.431631    110.90984   -1285.2784    984.07363    41.351495    41.351495    85.432667 
  341700    1021.7734   -24221.338   -25277.803    120.43116    344.04382   -931.93615    949.18582    41.351761    41.351761    85.438986 
  341800    1035.4659   -24221.354   -25291.975   -441.43753   -203.52063   -178.20449   -942.58747    41.351933    41.351933    85.510328 
  341900    1020.4338   -24221.324   -25276.403   -315.73464    524.65918   -668.17144   -803.69166    41.352065    41.352065    85.538014 
  342000     1032.527   -24221.341   -25288.924   -637.97998   -593.95067   -1117.7052    -202.2841    41.352126    41.352126    85.508905 
  342100    1020.5545   -24221.345   -25276.549   -102.17181   -359.71882    47.896161    5.3072112    41.351936    41.351936    85.463302 
  342200    1025.0518   -24221.338   -25281.192    189.43103    492.45169   -620.97219    696.81358    41.351671    41.351671    85.430194 
  342300      1018.25   -24221.351   -25274.172    214.48167    868.51821   -831.38189     606.3087    41.351479    41.351479    85.458271 
  342400    1016.0657   -24221.344   -25271.907    36.175807    303.91232    294.50759   -489.89249    41.351321    41.351321    85.495266 
  342500    1024.7663   -24221.366   -25280.925   -56.563747    810.24554   -208.01822   -771.91857    41.351272    41.351272    85.466848 
  342600    1032.6504   -24221.351   -25289.061    146.61363    130.59412   -16.080922    325.32769    41.351306    41.351306    85.422813 
  342700    1014.9509   -24221.354   -25270.765    380.26371    -302.0647    919.08467    523.77115    41.351409    41.351409    85.437344 
  342800    1041.6042   -24221.376   -25298.344   -684.33836    -1480.392   -683.74369    111.12065    41.351557    41.351557    85.485692 
  342900    1012.1269   -24221.357   -25267.847    18.561092    380.24137    458.61123   -783.16933    41.351551    41.351551    85.525238 
  343000    1018.2922   -24221.363   -25274.228   -32.875578    115.89819   -186.38004    -28.14489    41.351611    41.351611    85.502528 
  343100    1027.6758   -24221.374   -25283.941   -284.45063   -452.13486    767.18734   -1168.4044    41.351665    41.351665    85.469211 
  343200    1038.6966     -24221.4   -25295.363   -72.067385    6.2133485    -319.7504    97.334895    41.351845    41.351845    85.400479 
  343300    1027.4685   -24221.378   -25283.731    600.25338    53.638724    1423.9278    323.19366    41.352168    41.352168    85.346384 
  343400    1028.0436   -24221.374   -25284.322     671.5747    710.90175    9.4222765    1294.4001    41.352789    41.352789    85.327319 
  343500    1027.4501   -24221.442   -25283.776    430.92281    744.87066   -121.76439    669.66216    41.353578    41.353578    85.381746 
  343600     1023.816   -24221.465   -25280.041   -463.99373    326.41549   -1122.0119    -596.3848     41.35441     41.35441    85.493112 
  343700    1005.2758   -24221.409   -25260.816   -212.30571    517.80718   -120.43065   -1034.2937    41.355002    41.355002    85.532197 
  343800    1027.4137   -24221.435   -25283.732   -389.64853    30.615722   -1843.8581    644.29676    41.355405    41.355405    85.469035 
  343900    1022.8046   -24221.419    -25278.95    28.483454    420.71955   -182.58523   -152.68396    41.355535    41.355535    85.452703 
  344000    1026.1511   -24221.418   -25282.409   -242.12896    -150.9464    43.683429   -619.12391    41.355661    41.355661    85.456432 
  344100     1013.009   -24221.416   -25268.819    333.15856    462.24586   -383.83167    921.06147    41.355753    41.355753    85.437525 
  344200    1026.9008   -24221.473   -25283.239   -317.16548   -513.14089   -1206.1729    767.81731    41.355738    41.355738    85.477772 
  344300    1010.7282   -24221.497   -25266.541   -720.32356    -793.8369    -1244.558    -122.5758     41.35539     41.35539    85.582073 
  344400    1004.6556   -24221.451   -25260.216   -906.87704    -652.9942   -727.85854   -1339.7784    41.354557    41.354557    85.647392 
  344500    1022.6376   -24221.551   -25278.909   -860.17805   -1035.3345   -506.38084   -1038.8188    41.353409    41.353409      85.5846 
  344600    1025.5467   -24221.619   -25281.985    3.0508775   -111.25782   -431.95989    552.37034    41.352123    41.352123    85.440513 
  344700    1039.8015   -24221.537   -25296.642    120.90195   -130.82505   -595.43165    1088.9626     41.35094     41.35094    85.365605 
  344800      1030.65   -24221.553   -25287.195    181.38385    862.95113   -388.48498    69.685416     41.35002     41.35002    85.400267 
  344900    1028.3575   -24221.536   -25284.808    133.13331    824.35205   -254.29827   -170.65384    41.349465    41.349465    85.423734 
  345000    1026.9634   -24221.536   -25283.367    76.797923    378.90181   -131.98382   -16.524216    41.349169    41.349169    85.432831 
  345100    1028.3524   -24221.538   -25284.805    213.16112    1392.3567    -391.9694   -360.90398    41.349018    41.349018    85.446358 
  345200    1020.5237   -24221.539   -25276.711    340.34747    382.69895    562.49744    75.846022    41.349024    41.349024    85.456106 
  345300    1018.2837   -24221.552   -25274.408    167.66131   -779.26141    575.21469    707.03065    41.349114    41.349114    85.484093 
  345400      1020.97   -24221.562   -25277.196   -249.09987    116.53411   -659.67457   -204.15915    41.349129    41.349129    85.548674 
  345500    1028.2484   -24221.546   -25284.705    -822.3383   -2243.0281    416.60616   -640.59295    41.348964    41.348964    85.576556 
  345600    1030.4679   -24221.598   -25287.052   -583.20319   -928.76443    223.45436   -1044.2995    41.348528    41.348528    85.537007 
  345700    1022.6258   -24221.598   -25278.944    101.90605   -936.86451    514.23516     728.3475       41.348       41.348    85.438811 
  345800    1018.5551   -24221.577   -25274.714    801.60427     1041.321    770.27611    593.21565    41.347483    41.347483    85.415436 
  345900    1017.4558   -24221.626   -25273.626    47.989862    477.25588   -521.27389    187.98759    41.347235    41.347235    85.472369 
  346000    1021.7992    -24221.58   -25278.072   -180.13871    163.63587    344.21152   -1048.2635    41.347079    41.347079    85.531453 
  346100    1014.2891    -24221.58   -25270.306   -58.322257    54.358355   -196.33155   -32.993578    41.346945    41.346945    85.524716 
  346200    1022.2842   -24221.585   -25278.578   -379.75699   -433.66909   -497.25896   -208.34291    41.346703    41.346703    85.519355 
  346300    1037.0803   -24221.593   -25293.884   -534.94784   -557.74067   -1184.2029    137.10005    41.346337    41.346337    85.515089 
  346400     1013.707   -24221.585    -25269.71   -27.079602   -248.31883   -391.93682    559.01685    41.345781    41.345781    85.527713 
  346500    1014.9412   -24221.596   -25270.996   -210.35459   -483.71132   -137.82305   -9.5293855     41.34518     41.34518     85.54971 
  346600    1020.4957   -24221.591   -25276.734   -328.79456   -1120.5768    122.57972    11.613449    41.344615    41.344615    85.556193 
  346700    1024.5177   -24221.593   -25280.895   -408.92243   -1714.5547    244.81472    242.97267    41.343999    41.343999    85.557629 
  346800    1014.9301   -24221.594   -25270.983   -320.95121   -507.26257    506.16184   -961.75288    41.343225    41.343225    85.570575 
  346900    1023.7516   -24221.632   -25280.142   -146.08476    88.085352   -95.660324   -430.67932    41.342485    41.342485    85.516897 
  347000    1021.1945   -24221.616   -25277.482    574.71259    936.84946   -192.60749    979.89581     41.34185     41.34185    85.446793 
  347100    1018.4059   -24221.619   -25274.602    391.11437   -154.53008     261.9795    1065.8937    41.341403    41.341403    85.459772 
  347200    1018.8898   -24221.701   -25275.184   -269.93219   -484.61311   -252.49483   -72.688612    41.340989    41.340989     85.55298 
  347300    1012.0345   -24221.658   -25268.053   -475.01279   -1404.6454    176.74597   -197.13897     41.34044     41.34044    85.635798 
  347400    1010.0516   -24221.645    -25265.99   -764.73227   -1471.5332   -158.42005   -664.24355    41.339674    41.339674    85.677012 
  347500    1011.2081   -24221.662   -25267.202   -631.50139   -824.42273    -740.0548   -330.02664    41.338577    41.338577    85.652548 
  347600    1021.3883   -24221.688   -25277.754    -174.4594   -240.91991   -7.9464516   -274.51185    41.337219    41.337219    85.589622 
  347700    1022.9207   -24221.681   -25279.332    9.2904517   -659.58895    725.60249   -38.142179    41.335911    41.335911    85.533176 
  347800    1019.8403   -24221.674    -25276.14    102.16293   -143.56184    -13.74461    463.79523    41.334794    41.334794    85.515221 
  347900     1008.492   -24221.668     -25264.4    516.73484    609.61091    1390.8762   -450.28261    41.333858    41.333858    85.531174 
  348000    1025.4568   -24221.681   -25281.954    105.96161   -1095.0586    636.46179    776.48162    41.333269    41.333269    85.517516 
  348100    1029.3781   -24221.671   -25285.998     -206.329   -770.37252    759.40372    -608.0182    41.332815    41.332815    85.537769 
  348200    1013.0779   -24221.667   -25269.141    489.28366    916.17004    257.54964     294.1313    41.332502    41.332502    85.528603 
  348300    1033.8912   -24221.673   -25290.667   -124.44284   -563.70331    527.21134   -336.83655    41.332415    41.332415    85.527157 
  348400    1020.8276    -24221.67   -25277.156    279.80508    248.94046    549.38645    41.088341    41.332503    41.332503    85.521438 
  348500    1033.2423   -24221.681   -25290.004   -102.51058    488.23397   -401.88995   -393.87575    41.332754    41.332754     85.50521 
  348600    1022.2522   -24221.675   -25278.635    677.21254    949.78498     283.5972    798.25544    41.333105    41.333105    85.469271 
  348700    1027.1229   -24221.713   -25283.709    318.91805    673.80887   -1116.8135    1399.7588    41.333645    41.333645    85.490068 
  348800    1015.4024   -24221.713   -25271.591   -230.56354   -163.79089     170.9251   -698.82484     41.33418     41.33418     85.57702 
  348900    1018.3873   -24221.693   -25274.656   -484.20236    -828.8299   -216.24947   -407.52771    41.334586    41.334586    85.609745 
  349000    1008.6418   -24221.692   -25264.579   -289.82571   -167.77495   -751.88969    50.187521    41.334695    41.334695    85.601067 
  349100    1027.6737   -24221.707   -25284.272   -523.05458   -337.08037   -793.79147    -438.2919    41.334501    41.334501    85.581993 
  349200    1023.9108   -24221.694   -25280.369   -116.04712   -362.75145   -312.02692    326.63701    41.334196    41.334196    85.561445 
  349300    1029.7475   -24221.701    -25286.41   -440.23119   -736.36875   -546.47993   -37.844873    41.333903    41.333903    85.559377 
  349400    1020.2044   -24221.705   -25276.547   -170.76028   -831.62146    522.11087   -202.77026    41.333531    41.333531     85.57679 
  349500    1033.6677   -24221.695   -25290.457   -567.64937   -568.39812   -715.96315   -418.58685      41.3332      41.3332    85.590233 
  349600    1032.0142   -24221.731   -25288.784   -171.85459    33.929194   -375.73324   -173.75972    41.332879    41.332879    85.542586 
  349700    1019.5066   -24221.725   -25275.846    521.84449    783.68853    410.54371    371.30121    41.332697    41.332697    85.479956 
  349800    1039.3814   -24221.713   -25296.383    345.62236    489.96855    628.10086   -81.202318    41.332763    41.332763    85.445997 
  349900    1011.4487    -24221.73    -25267.52    856.32867    844.56898    847.66206    876.75497    41.333094    41.333094    85.460685 
  350000    1015.5039    -24221.74   -25271.722    153.48198    216.96271    197.50143    45.981802    41.333605    41.333605    85.527366 
Loop time of 5606.03 on 1 procs for 200000 steps with 8000 atoms

Pair  time (%) = 5062.92 (90.3121)
Neigh time (%) = 387.956 (6.92034)
Comm  time (%) = 32.4963 (0.579666)
Outpt time (%) = 2.4885 (0.0443897)
Other time (%) = 120.168 (2.14355)

Nlocal:    8000 ave 8000 max 8000 min
Histogram: 1 0 0 0 0 0 0 0 0 0
Nghost:    8374 ave 8374 max 8374 min
Histogram: 1 0 0 0 0 0 0 0 0 0
Neighs:    277367 ave 277367 max 277367 min
Histogram: 1 0 0 0 0 0 0 0 0 0

Total # of neighbors = 277367
Ave neighs/atom = 34.6709
Neighbor list builds = 20000
Dangerous builds = 0
unfix		4
