LAMMPS (13 Jan 2014)
dimension       3
boundary        p p p
units           metal

atom_style	atomic
neighbor	0.3 bin
neigh_modify	every 10 delay 0 check no

# Number of steps for the equilibration steps
variable        eqsteps equal 50000

# Number of steps to run our NPH simulation
variable        simsteps equal 200000

# Our trial melting temperature
variable	T equal 1000.0
variable	T2 equal 2*${T}
variable	T2 equal 2*1000

# Some high temperature to melt the crystal
variable	Tmelt equal 2000.0

#System size
variable	nx equal 4
variable	ny equal 4
variable	nz equal 20
variable	nzhalf equal ${nz}*0.5
variable	nzhalf equal 20*0.5
variable	a equal 4.050
variable	length equal ${nz}*${a}
variable	length equal 20*${a}
variable	length equal 20*4.05

lattice		fcc ${a}
lattice		fcc 4.05
Lattice spacing in x,y,z = 4.05 4.05 4.05

region         box block 0 ${nx} 0 ${ny} 0 ${nz}
region         box block 0 4 0 ${ny} 0 ${nz}
region         box block 0 4 0 4 0 ${nz}
region         box block 0 4 0 4 0 20
create_box     1 box
Created orthogonal box = (0 0 0) to (16.2 16.2 81)
  1 by 1 by 1 MPI processor grid
create_atoms   1 box
Created 1280 atoms

mass		1 26.9815

pair_style	eam/alloy
pair_coeff	* * Al_potential.alloy Al

velocity	all create ${T2} 1337
velocity	all create 2000 1337

# Create a dump file. This can be visualized with
# e.g. OVITO (http://www.ovito.org/)
dump		id all atom 1000 atomsdump

# 1 fs timestep
timestep	0.001
thermo_style	custom step temp etotal pe press pxx pyy pzz lx ly lz

# output every 100th timestep
thermo		100

# Equilibration the whole system to the trial melting temperature
fix		1 all npt temp ${T} ${T} 1 iso 0 0 3 drag 1.0
fix		1 all npt temp 1000 ${T} 1 iso 0 0 3 drag 1.0
fix		1 all npt temp 1000 1000 1 iso 0 0 3 drag 1.0
run		${eqsteps}
run		50000
Memory usage per processor = 3.13549 Mbytes
Step Temp TotEng PotEng Press Pxx Pyy Pzz Lx Ly Lz 
       0         2000   -4017.7128   -4348.3603    12550.071    12090.606    12421.922    13137.686         16.2         16.2           81 
     100    944.48657   -4021.1616   -4177.3077    32491.951    33552.435     32888.28    31035.137    16.236268    16.236268    81.181338 
     200    947.25876   -4027.0446    -4183.649    18316.954    18525.634    17946.766    18478.463    16.335511    16.335511    81.677555 
     300    906.63848   -4029.9645   -4179.8534    4375.1226    4875.1304    4032.5862    4217.6513    16.449847    16.449847    82.249237 
     400    903.86666   -4029.3416   -4178.7722    -6057.449   -6503.5045   -5701.5109   -5967.3317    16.536557    16.536557    82.682783 
     500    905.74631   -4027.7087   -4177.4501   -11287.034   -11617.428   -12468.945   -9774.7286    16.583128    16.583128     82.91564 
     600    876.61808   -4026.5443     -4171.47   -11502.364   -11379.701   -11036.896   -12090.495    16.594211    16.594211    82.971054 
     700    880.63896   -4025.9775    -4171.568   -9515.2573   -9800.7335   -9253.3471   -9491.6912    16.578618    16.578618    82.893089 
     800    890.89871   -4025.5724   -4172.8591   -6033.4904   -6388.2942   -6310.2033   -5401.9739    16.545685    16.545685    82.728425 
     900    916.67659   -4024.8737   -4176.4221   -1626.8992   -1726.5336   -2257.9996   -896.16455    16.505506    16.505506    82.527529 
    1000    905.25702    -4023.802   -4173.4624    3317.7223     4460.204    3373.4875    2119.4753    16.468648    16.468648    82.343239 
    1100    943.90664   -4022.5565   -4178.6067     5938.722     7261.034    3981.3621      6573.77    16.443895    16.443895    82.219476 
    1200    919.74547   -4021.5603   -4173.6161    7431.1462      7464.67    6128.6836    8700.0848    16.434538    16.434538     82.17269 
    1300    935.42538   -4020.8845   -4175.5325     6603.612    5121.0678    5089.9173    9599.8509    16.441205    16.441205    82.206027 
    1400    948.14736    -4020.419   -4177.1703    4111.0222    3165.9312    3873.9252    5293.2102    16.460122    16.460122     82.30061 
    1500    891.72467   -4019.9424   -4167.3657    2635.6385    2525.8616    2410.5683    2970.4856    16.485362    16.485362     82.42681 
    1600      936.108   -4019.2431    -4174.004   -1528.7975   -1231.1867   -1769.1094   -1586.0965    16.510747    16.510747    82.553734 
    1700    908.69693   -4018.4458    -4168.675   -2995.8915    -2693.527   -2560.8634   -3733.2842    16.529405    16.529405    82.647027 
    1800    919.73877   -4017.6347   -4169.6893   -4313.2691   -4351.7782   -4231.4864   -4356.5428    16.538639    16.538639    82.693194 
    1900    909.48435    -4016.876   -4167.2353   -3622.1227   -4394.2333   -3041.6486   -3430.4863    16.537921    16.537921    82.689604 
    2000    898.63631   -4016.1806   -4164.7465   -2263.1536   -1784.6094   -2482.1909   -2522.6606    16.528347    16.528347    82.641736 
    2100    950.17359   -4015.4762   -4172.5624   -1634.2422   -2304.3975   -1484.2837   -1114.0454    16.513523    16.513523    82.567614 
    2200    940.38463   -4014.7137   -4170.1816    976.20589    377.22005    1209.7573    1341.6403    16.497371    16.497371    82.486855 
    2300    972.74664   -4013.9335   -4174.7516    1616.9271    1015.1257    2709.8262    1125.8295    16.484409    16.484409    82.422045 
    2400    944.61687   -4013.1931   -4169.3607    3308.7966    1651.5499    4308.9489    3965.8909    16.477447    16.477447    82.387237 
    2500    961.56672   -4012.5518   -4171.5216    3064.8522    3391.5232    3416.9844    2386.0492    16.477702    16.477702    82.388511 
    2600     954.8872   -4011.9708   -4169.8363    2411.3935    1809.6267    3929.5937    1494.9602    16.485149    16.485149    82.425747 
    2700    968.85663   -4011.4072   -4171.5821    637.80054    871.25408      983.168    58.979548    16.497076    16.497076    82.485378 
    2800    939.16144   -4010.8143     -4166.08    91.768033    576.84776   -38.027535   -263.51612    16.509805    16.509805    82.549023 
    2900    954.44559   -4010.1942   -4167.9867   -1428.4134   -1224.7328     -1466.89   -1593.6173    16.520622    16.520622     82.60311 
    3000    932.58378   -4009.5547    -4163.733   -1560.9076    555.60763   -2063.0156   -3175.3148    16.527616    16.527616    82.638079 
    3100    950.81769   -4008.9236   -4166.1163   -2050.2831   -2243.9224   -1240.9998   -2665.9269    16.529697    16.529697    82.648485 
    3200    979.21898   -4008.3178   -4170.2059   -2211.7109   -1781.5888   -2033.2993   -2820.2447     16.52696     16.52696    82.634802 
    3300    962.70915   -4007.7471   -4166.9058   -937.53595   -1101.5056   -673.91716   -1037.1851    16.520166    16.520166    82.600829 
    3400    967.21836   -4007.1705   -4167.0747   -127.91289    969.81189   -607.00714   -746.54343    16.511678    16.511678    82.558392 
    3500    959.69126   -4006.5675   -4165.2272    1383.6698    1147.8946    2787.7714    215.34333    16.504101    16.504101    82.520503 
    3600    971.21371   -4005.9806   -4166.5453    1183.3342    1225.7282    1485.8667     838.4077    16.499324    16.499324     82.49662 
    3700     997.9374    -4005.451   -4170.4337    1071.4029   -218.79409    2200.0948     1232.908    16.497886    16.497886     82.48943 
    3800    955.77923   -4004.9657   -4162.9787    1936.6563    1329.6352    1563.1553    2917.1784    16.500028    16.500028    82.500139 
    3900    955.27848   -4004.5195   -4162.4497    1301.1277       893.21    2331.3477    678.82535    16.505365    16.505365    82.526826 
    4000     1000.775   -4004.0673   -4169.5192   -379.98059   -252.89919    -1045.765    158.72242    16.512776    16.512776    82.563881 
    4100    998.47782   -4003.6289    -4168.701    -1397.275   -502.86531   -2971.9723   -716.98742    16.519622    16.519622     82.59811 
    4200    967.84644   -4003.2115   -4163.2195   -987.89857   -1833.1299    363.89277   -1494.4585    16.524241    16.524241    82.621204 
    4300    963.16966   -4002.7746   -4162.0094   -1147.8772     -1974.49   -2227.8751    758.73347    16.526518    16.526518    82.632588 
    4400    984.04327   -4002.3161   -4165.0018   -1256.9275   -1686.4576   -622.94796   -1461.3769     16.52631     16.52631    82.631548 
    4500     989.9171   -4001.8767   -4165.5335   -1292.8257   -1577.6028    -743.2624   -1557.6119    16.523499    16.523499    82.617495 
    4600    965.88128   -4001.4532   -4161.1363    291.81935    453.54324    513.76321   -91.848398    16.518806    16.518806    82.594028 
    4700    977.58703   -4001.0174   -4162.6357    442.53906     86.81145    771.54868    469.25705    16.514592    16.514592    82.572961 
    4800    994.37174   -4000.5852   -4164.9784     645.4403    539.07346    236.24963    1160.9978    16.511837    16.511837    82.559185 
    4900    998.41657   -4000.1895   -4165.2514    583.43511    1172.8203    743.68351   -166.19845    16.510825    16.510825    82.554126 
    5000    985.89646   -3999.8167   -4162.8088    484.67302   -54.633999   -265.02388    1773.6769    16.512122    16.512122     82.56061 
    5100    995.41916   -3999.4548   -4164.0212    234.85822   -80.276111   -379.63459    1164.4854     16.51504     16.51504    82.575201 
    5200    952.09366   -3999.1193    -4156.523    1136.4231    1526.4509    1087.5902    795.22824    16.518731    16.518731    82.593655 
    5300     991.4345   -3998.7887   -4162.6964   -290.58197   -4.2300698   -1095.0354    227.51956    16.522622    16.522622    82.613112 
    5400    967.36812   -3998.4831    -4158.412   -410.91656    764.97247    33.305041   -2031.0272    16.525449    16.525449    82.627243 
    5500    983.65899   -3998.1515   -4160.7737   -651.19017    804.70379   -2494.5262   -263.74808    16.527253    16.527253    82.636266 
    5600    986.99435   -3997.8316   -4161.0052   -578.85478   -981.56829   -440.92104   -314.07502    16.527381    16.527381    82.636906 
    5700    949.66737   -3997.5173   -4154.5199    608.17438    1800.8712   -337.41648    361.06837    16.526254    16.526254    82.631268 
    5800    963.89587   -3997.1949   -4156.5497    259.87574    249.64509    -220.9101    750.89222    16.524799    16.524799    82.623996 
    5900     997.9817    -3996.889    -4161.879   -433.20123   -953.17899   -1266.1342    919.70956    16.522843    16.522843    82.614216 
    6000    990.61705   -3996.6094   -4160.3819    120.32711    108.84926   -910.26527    1162.3973    16.520548    16.520548    82.602741 
    6100    1012.8778   -3996.3589   -4163.8116    33.957086    632.98683   -192.26085   -338.85473    16.518687    16.518687    82.593434 
    6200     999.7674   -3996.1361   -4161.4214    315.98711    47.923408   -502.34016    1402.3781    16.517914    16.517914    82.589569 
    6300    1021.5358   -3995.9189    -4164.803   -174.50033   -95.500944   -630.44261    202.44256    16.518568    16.518568    82.592838 
    6400    989.88321   -3995.7404   -4159.3915    232.55323    103.59548    282.90631    311.15791    16.519682    16.519682    82.598411 
    6500    999.93529   -3995.5513   -4160.8644    1.4570685    671.44335   -1654.1622    987.09005    16.521668    16.521668     82.60834 
    6600    1012.2973   -3995.3704   -4162.7272   -572.70916   -2387.8446    788.52612   -118.80899    16.524053    16.524053    82.620265 
    6700    966.45958   -3995.2031   -4154.9818    479.73808    97.705689    842.20199    499.30657    16.526051    16.526051    82.630256 
    6800    992.32399    -3995.016   -4159.0707   -113.95296    595.20062    236.54623   -1173.6057    16.527861    16.527861    82.639306 
    6900    1003.2427   -3994.8507   -4160.7106    -575.9593   -807.98683   -923.48285    3.5917744    16.528781    16.528781    82.643905 
    7000    996.69347   -3994.7043   -4159.4814   -312.59025    1509.0927   -239.46852   -2207.3949    16.528665    16.528665    82.643327 
    7100    995.06766   -3994.5531   -4159.0614   -257.69395    473.18816   -1789.4799    543.20988    16.527961    16.527961    82.639804 
    7200    1005.6358   -3994.4185    -4160.674   -260.33206    342.37597    -622.1815   -501.19064    16.526457    16.526457    82.632283 
    7300    995.50916   -3994.2914   -4158.8727   -45.962389     1582.643   -993.22827   -727.30187     16.52441     16.52441    82.622052 
    7400    1018.2395   -3994.1639   -4162.5031   -207.05863    993.57519   -319.71044   -1295.0406    16.522421    16.522421    82.612106 
    7500    986.65561   -3994.0567   -4157.1743     827.2369    249.53624    731.57402    1500.6004    16.520996    16.520996     82.60498 
    7600    1020.2281   -3993.9501    -4162.618    14.098047    1381.1145    333.27095   -1672.0913    16.520978    16.520978    82.604888 
    7700      1000.01   -3993.8685   -4159.1939    386.64073    701.92289   -245.71292    703.71222    16.521917    16.521917    82.609585 
    7800    1008.7669   -3993.7678   -4160.5409    37.723128   -10.048058    -820.4261    943.64354    16.524169    16.524169    82.620845 
    7900    1009.6321   -3993.6721   -4160.5883   -418.61494   -39.628521   -1411.1872    194.97093    16.526892    16.526892    82.634459 
    8000    1024.0337   -3993.5854   -4162.8825   -1103.1614   -1282.3074   -2355.9803    328.80372    16.529101    16.529101    82.645507 
    8100    967.91705   -3993.5241   -4153.5437     144.7116    641.68551     571.8659   -779.41661    16.529843    16.529843    82.649216 
    8200      985.637   -3993.4528    -4156.402   -36.543253    620.99473   -1337.9756    607.35113     16.52975     16.52975    82.648751 
    8300    954.24072   -3993.4111   -4151.1698    757.27567    1068.7322    688.46599    514.62879    16.528246    16.528246    82.641232 
    8400    1013.0321   -3993.3418     -4160.82   -258.66189   -343.15011      479.504   -912.33955    16.526785    16.526785    82.633924 
    8500    999.16569   -3993.2668   -4158.4526   -146.56767    38.116356   -300.69769   -177.12167    16.525345    16.525345    82.626723 
    8600    1022.7442   -3993.1696   -4162.2535   -230.97718    577.87416   -100.23081   -1170.5749    16.524496    16.524496    82.622478 
    8700    999.65796    -3993.095   -4158.3622    139.23484    111.97533   -10.685651    316.41483    16.523847    16.523847    82.619234 
    8800    959.42103    -3993.045   -4151.6601    1239.6314    2356.5451    1094.0164    268.33271    16.523329    16.523329    82.616644 
    8900    1015.5968   -3992.9634   -4160.8656   -112.90386   -106.63984   -1180.9175    948.84575    16.524472    16.524472    82.622362 
    9000    976.11539   -3992.9185   -4154.2935    740.16185    787.71885    1413.3394    19.427325    16.525868    16.525868    82.629339 
    9100     991.7486   -3992.8867   -4156.8462    24.717482    246.58451   -769.13607      596.704    16.527251    16.527251    82.636255 
    9200    992.08263   -3992.8477   -4156.8625    181.76007    1273.7494   -723.73574   -4.7334843    16.528275    16.528275    82.641374 
    9300     997.6034   -3992.8458   -4157.7733   -152.31915   -287.20002   -210.13507    40.377637    16.528543    16.528543    82.642717 
    9400    1004.8184   -3992.8784   -4158.9987    -373.8093    263.75825   -1317.8755   -67.310658    16.527922    16.527922    82.639612 
    9500    1025.3947   -3992.8952   -4162.4173   -482.83893   -1145.6396   -786.41314    483.53591    16.526924    16.526924    82.634619 
    9600     1000.055   -3992.9093   -4158.2422   -145.82425    732.03837   -429.58237   -739.92875    16.525787    16.525787    82.628937 
    9700    991.76148   -3992.8817   -4156.8434    369.84607    205.32741    363.26659    540.94422    16.525233    16.525233    82.626166 
    9800     984.8481   -3992.8684   -4155.6872    797.85678     543.2663    76.374491    1773.9295    16.524922    16.524922    82.624608 
    9900    976.35523   -3992.8705   -4154.2852    768.05814    429.93698   -121.16916    1995.4066    16.525197    16.525197    82.625986 
   10000    1005.7054    -3992.873   -4159.1399    121.61678   -912.63441    447.55379    829.93095    16.526105    16.526105    82.630525 
   10100    980.57619     -3992.85   -4154.9626    268.50222   -60.444371    1039.8398   -173.88877    16.527663    16.527663    82.638315 
   10200    991.42977   -3992.7959   -4156.7027    16.886135    124.52043    674.13788    -747.9999    16.529256    16.529256    82.646279 
   10300    1018.2218    -3992.773   -4161.1093   -800.24974   -64.532247   -627.55591   -1708.6611    16.529778    16.529778    82.648892 
   10400    995.30084   -3992.7674   -4157.3142   -175.09017   -178.89778   -526.29987    179.92713    16.529303    16.529303    82.646514 
   10500    1007.4232   -3992.7705   -4159.3214   -634.26199     -751.339   -1914.2441    762.79714    16.528069    16.528069    82.640346 
   10600    1005.2121   -3992.7488   -4158.9342   -396.71466    -188.1784   -320.52527    -681.4403    16.526695    16.526695    82.633474 
   10700    1010.7024   -3992.7309    -4159.824    13.032373   -43.601772   -1056.0594    1138.7583    16.525311    16.525311    82.626553 
   10800    1010.0598   -3992.7231   -4159.7099    244.23224       1206.1   -633.30119    159.89791    16.524336    16.524336     82.62168 
   10900    1014.9825   -3992.7102   -4160.5109   -86.343878    342.71013    -701.2916    99.549832    16.524618    16.524618    82.623089 
   11000    983.08066   -3992.7323   -4155.2589    619.41424    511.54458    1712.2239   -365.52574    16.525118    16.525118     82.62559 
   11100    1020.7483   -3992.7637   -4161.5176   -411.54035   -772.80723   -1253.6516    791.83773    16.526016    16.526016    82.630079 
   11200     1017.528   -3992.7867   -4161.0082   -523.68342    647.49078   -1642.3374   -576.20366    16.526955    16.526955    82.634775 
   11300     995.0648   -3992.7982    -4157.306   -97.787116   -53.004623   -1199.2425    958.88578    16.527923    16.527923    82.639616 
   11400    1015.3424   -3992.7936   -4160.6538   -591.01731   -2270.5802    478.13926    19.389058    16.528929    16.528929    82.644646 
   11500    1017.7603   -3992.8117   -4161.0716   -455.68498   -1.5358736    106.68721   -1472.2063    16.529165    16.529165    82.645826 
   11600    978.89358   -3992.8511   -4154.6855    150.26534   -90.254518    247.26256    293.78797    16.528849    16.528849    82.644247 
   11700     1016.863   -3992.8836   -4160.9952   -663.04182   -1676.2088   -49.019084   -263.89758     16.52819     16.52819    82.640952 
   11800    965.41839   -3992.9392   -4152.5458     793.2195    166.99153   -516.17949    2728.8465    16.526778    16.526778    82.633891 
   11900    1018.4057   -3992.9791   -4161.3457   -469.36242   -962.76679   -1817.1883    1371.8678    16.526013    16.526013    82.630066 
   12000    979.39667   -3993.0322   -4154.9497    923.48399    1227.7064   -40.318652    1583.0642    16.525159    16.525159    82.625796 
   12100    1031.8958   -3993.0744   -4163.6712   -664.46496   -546.80418   -1042.5241   -404.06661     16.52505     16.52505     82.62525 
   12200    1010.8145   -3993.1176   -4160.2293   -259.87619   -1970.1156   -750.54856    1941.0356    16.525394    16.525394     82.62697 
   12300    1021.3413   -3993.1631   -4162.0151   -551.26068    537.35734   -1907.5013   -283.63807    16.526214    16.526214    82.631072 
   12400    1012.6663   -3993.1965   -4160.6143   -481.17112   -1186.1493   -632.21726    374.85324    16.527287    16.527287    82.636435 
   12500     1021.012   -3993.2287   -4162.0262   -525.86129   -412.93977    -1183.823    19.178948    16.527949    16.527949    82.639744 
   12600    1037.8021   -3993.2591   -4164.8324   -976.83436    11.060841   -2594.4297    -347.1342     16.52828     16.52828    82.641399 
   12700    961.36553   -3993.3057   -4152.2422    672.66818    803.59132     920.0141    294.39911    16.527897    16.527897    82.639483 
   12800    1036.3025    -3993.313   -4164.6383   -1084.6962    -1105.793   -408.70681   -1739.5888    16.527551    16.527551    82.637755 
   12900    967.26304   -3993.3567   -4153.2682    942.13373    826.59607    1404.0966     595.7085     16.52615     16.52615     82.63075 
   13000    993.84708   -3993.3639   -4157.6704    78.539846   -659.10022   -1414.4077    2309.1275    16.525466    16.525466    82.627331 
   13100    1018.8838   -3993.3509   -4161.7966   -594.26865   -492.11876    -1185.998   -104.68915    16.525272    16.525272    82.626361 
   13200    1004.8557   -3993.3391   -4159.4656    215.19895    464.06897   -50.794907    232.32279    16.525481    16.525481    82.627407 
   13300    1021.8211   -3993.3189   -4162.2502   -467.30774   -354.99701    -1175.456    128.52976    16.526541    16.526541    82.632705 
   13400    1001.0623   -3993.3186   -4158.8179    83.778561     1515.353   -941.22475   -322.79261    16.527106    16.527106    82.635529 
   13500    993.61599    -3993.319   -4157.5873    -8.415723    148.14812    -19.82021   -153.57507    16.527508    16.527508    82.637542 
   13600    987.36857   -3993.3132   -4156.5487    168.95991   -1594.1671    1660.2851    440.76175    16.527736    16.527736    82.638682 
   13700    1040.4349   -3993.2985    -4165.307   -900.70592   -500.06952   -228.01788   -1974.0304    16.527825    16.527825    82.639123 
   13800    1003.4837   -3993.3145   -4159.2141    171.43335   -916.16546   -365.76249     1796.228    16.527062    16.527062    82.635311 
   13900    1004.4322   -3993.3231   -4159.3796   -65.769807    652.86128   -501.51945   -348.65124    16.526398    16.526398    82.631989 
   14000    987.26066   -3993.3342   -4156.5518    425.52179     696.9451    1009.6227   -430.00244    16.525842    16.525842    82.629208 
   14100    975.14641   -3993.3424   -4154.5572    720.29144    587.82585    1402.1266    170.92184    16.525474    16.525474     82.62737 
   14200    1006.0218   -3993.3276   -4159.6469   -245.92821    99.137261   -897.52532    60.603439    16.525954    16.525954    82.629772 
   14300    1022.1036   -3993.3088   -4162.2868   -864.79735    46.201415    -1041.295   -1599.2985    16.526433    16.526433    82.632163 
   14400    1024.4492   -3993.2802    -4162.646   -621.71855   -798.43106    986.98789   -2053.7125    16.526703    16.526703    82.633517 
   14500    996.52777   -3993.2656   -4158.0153    262.33343   -677.05251    697.14056    766.91225    16.526462    16.526462    82.632308 
   14600    984.09556   -3993.2369   -4155.9312    374.72803    250.53971    978.41101   -104.76663     16.52638     16.52638      82.6319 
   14700    998.25528   -3993.2304   -4158.2657   -236.53733    -543.4299   -756.39802    590.21594    16.525975    16.525975    82.629875 
   14800    968.82965   -3993.1842   -4153.3547    750.81786    1335.3694   -776.70853    1693.7927    16.525828    16.525828     82.62914 
   14900    993.40428   -3993.1229   -4157.3562   -28.451954    1109.7369    590.47783   -1785.5706     16.52602     16.52602    82.630098 
   15000    1026.3082   -3993.0712   -4162.7443    -666.5933   -440.76608   -1620.2827    61.268872    16.525818    16.525818    82.629092 
   15100    1030.8703   -3993.0481   -4163.4754   -701.66761   -1001.5834   -1314.3869    210.96747     16.52524     16.52524      82.6262 
   15200    1010.8982   -3993.0329   -4160.1583   -163.76357    407.02841   -1018.7319    120.41284    16.524956    16.524956     82.62478 
   15300    966.58736   -3993.0331   -4152.8329    1148.7282    408.81187    1530.7264    1506.6464    16.524998    16.524998    82.624991 
   15400    1035.3979   -3993.0286   -4164.2044   -847.21366   -1137.1147   -1068.4245   -336.10184    16.525979    16.525979    82.629896 
   15500    984.78584   -3993.0533   -4155.8617    322.26424    1147.2172   -74.467063   -105.95744    16.526638    16.526638    82.633191 
   15600    1002.4273   -3993.0705   -4158.7955   -219.79208   -1601.0272    1611.3545    -669.7035    16.527303    16.527303    82.636516 
   15700    1015.6614   -3993.1135   -4161.0264   -437.72203   -339.24252   -951.41219   -22.511372    16.527324    16.527324    82.636619 
   15800    994.69576   -3993.1182    -4157.565     87.98409    714.97465   -645.35825    194.33587    16.527805    16.527805    82.639026 
   15900     982.8842   -3993.1276   -4155.6217    545.10763    543.46334    81.747218    1010.1123    16.528237    16.528237    82.641185 
   16000    995.00259   -3993.1488   -4157.6463   -111.44641     270.5641    922.97873   -1527.8821    16.528309    16.528309    82.641547 
   16100    999.41219   -3993.1571   -4158.3836   -446.32815   -1075.9841   -744.71598    481.71566    16.528086    16.528086    82.640432 
   16200      1001.79   -3993.1314   -4158.7511    3.3691303    244.09083    -852.8048    618.82137    16.527681    16.527681    82.638406 
   16300    1020.7534   -3993.1114   -4161.8662   -896.60899   -828.99407     47.33383   -1908.1667     16.52711     16.52711    82.635552 
   16400     984.9241    -3993.112   -4155.9433    311.43667    226.44644    1220.3625   -512.49893    16.526082    16.526082     82.63041 
   16500    1002.6625   -3993.0891    -4158.853    78.201979    522.26714    811.93094   -1099.5921    16.525636    16.525636    82.628181 
   16600    998.46124   -3993.0857    -4158.155    44.504464      341.014   -146.04549    -61.45512    16.525382    16.525382    82.626909 
   16700    1003.5187   -3993.0688   -4158.9743    196.77859    769.04366   -108.77087   -69.937013    16.525806    16.525806    82.629028 
   16800     1033.977   -3993.0643   -4164.0052   -938.77197   -1726.1253   -100.19703   -989.99356    16.526279    16.526279    82.631395 
   16900     976.9788   -3993.0519   -4154.5697    541.97736   -190.30003    2572.7466   -756.51448     16.52674     16.52674      82.6337 
   17000    992.00172   -3993.0274   -4157.0288    102.91616    517.24199    757.38965   -965.88316    16.527287    16.527287    82.636437 
   17100    1023.8817    -3992.994   -4162.2659   -777.46526    170.06266   -482.86999   -2019.5885    16.527888    16.527888     82.63944 
   17200     1023.372   -3992.9594   -4162.1471   -888.37231   -821.72832   -970.90641   -872.48222    16.528209    16.528209    82.641043 
   17300    989.08727   -3992.9501   -4156.4697    221.51295    1742.6536   -254.80045   -823.31434    16.527797    16.527797    82.638987 
   17400    1002.8991   -3992.9294   -4158.7324   -102.35902    287.88851   -744.91721    149.95163    16.527584    16.527584     82.63792 
   17500    1013.3648   -3992.9155   -4160.4488    70.248876    908.06163   -1401.7495    704.43449    16.527311    16.527311    82.636556 
   17600    1011.5054   -3992.9197   -4160.1455   -66.944274    322.90777   -1460.6793    936.93871    16.527175    16.527175    82.635875 
   17700    988.62339   -3992.9253   -4156.3682    231.78166    640.76892   -45.666851    100.24291    16.527424    16.527424    82.637121 
   17800    982.11126   -3992.9382   -4155.3045      209.427    2060.3201   -948.68374   -483.35533    16.527857    16.527857    82.639283 
   17900    1023.5973   -3992.9461    -4162.171   -647.59771   -394.51546   -1143.7205    -404.5572    16.528367    16.528367    82.641834 
   18000    981.44648   -3992.9761   -4155.2324    363.60405    258.13829    402.60345    430.07041    16.528455    16.528455    82.642277 
   18100    989.50609    -3993.001   -4156.5898     109.0629   -851.98324    400.34282    778.82912    16.528485    16.528485    82.642423 
   18200    989.82414   -3993.0348   -4156.6763    193.41499   -49.019066    15.935154    613.32888    16.528033    16.528033    82.640165 
   18300    1001.0259   -3993.0535   -4158.5468   -137.20523   -237.69332    -100.0314    -73.89095    16.527348    16.527348    82.636741 
   18400    995.47905   -3993.0935   -4157.6698     188.0528    972.22558   -589.50075    181.43356    16.525998    16.525998     82.62999 
   18500    967.89038   -3993.1484   -4153.1637    967.30525    466.39251    790.79289    1644.7304    16.524499    16.524499    82.622495 
   18600    992.77752   -3993.2118   -4157.3415    392.58698    249.81091    -1226.528    2154.4781    16.523292    16.523292    82.616462 
   18700     985.7887   -3993.2657     -4156.24    679.77282    1193.7081   -1013.3832    1858.9935    16.522682    16.522682    82.613409 
   18800    1013.4489   -3993.3244   -4160.8716    91.303503    1074.1757   -163.08188   -637.18329    16.522833    16.522833    82.614167 
   18900    1005.4809   -3993.3886   -4159.6184    257.37199    632.61537   -284.47286    423.97345    16.523863    16.523863    82.619313 
   19000    993.89226   -3993.4484   -4157.7624    415.83562    942.61443    435.49553   -130.60311    16.525548    16.525548    82.627742 
   19100    980.12707   -3993.5099   -4155.5482    228.41029    841.91461   -761.28342    604.59967    16.527218    16.527218    82.636092 
   19200    994.40509    -3993.545   -4157.9438    38.613126   -362.21621   -967.05868    1445.1143    16.528875    16.528875    82.644373 
   19300    1018.2287   -3993.5923   -4161.9296   -793.32786    -77.85175   -1686.0703   -616.06152    16.529787    16.529787    82.648934 
   19400     1004.418   -3993.6052   -4159.6594   -483.88713   -470.90975   -825.66182   -155.08982    16.530487    16.530487    82.652435 
   19500    1017.7947   -3993.6011   -4161.8667   -566.78416   -1361.9511   -1270.4859    932.08457    16.530477    16.530477    82.652383 
   19600    981.33047   -3993.6219   -4155.8591   -56.532255   -462.46375   -261.60436    554.47135    16.529444    16.529444    82.647221 
   19700      995.735   -3993.6086   -4158.2272   -14.800506    1452.7283   -13.519812     -1483.61    16.528112    16.528112    82.640558 
   19800    1004.1362   -3993.5943   -4159.6018   -345.54104   -37.828987   -943.17268    -55.62144    16.526393    16.526393    82.631966 
   19900    985.29923   -3993.5814   -4156.4747    585.09257   -592.73766    1571.7972     776.2182    16.524484    16.524484    82.622422 
   20000    1025.6841   -3993.5578   -4163.1278     -396.441    768.63251   -1006.5006   -951.45487    16.523401    16.523401    82.617006 
   20100    1011.2184   -3993.5557    -4160.734   -5.8559878     10.67293    587.05843   -615.29932    16.522763    16.522763    82.613813 
   20200    982.94947   -3993.5472    -4156.052    993.44993   -255.14243    529.14908    2706.3431     16.52316     16.52316    82.615802 
   20300     983.3039   -3993.5384   -4156.1018    509.97764   -150.71912    563.37064    1117.2814    16.524446    16.524446     82.62223 
   20400     992.3172   -3993.5359   -4157.5895    301.40709    403.13902     -142.384    643.46626    16.525944    16.525944    82.629722 
   20500    1016.7859   -3993.5078   -4161.6067   -670.82416    442.27189   -2100.8048   -353.93957    16.527962    16.527962    82.639812 
   20600    997.67011   -3993.4913   -4158.4299    -401.0412    46.779591   -235.92935   -1013.9738    16.529226    16.529226    82.646128 
   20700    1027.0685   -3993.4619   -4163.2607   -1130.8339   -53.919336   -2740.6595   -597.92267    16.529893    16.529893    82.649464 
   20800    988.39189   -3993.4255   -4156.8302   -258.74887    490.14978    198.18824   -1464.5846    16.529885    16.529885    82.649423 
   20900    1010.7786   -3993.3868   -4160.4925   -631.89276   -1378.2295   -401.40916   -116.03961    16.528999    16.528999    82.644994 
   21000     981.7811   -3993.3549   -4155.6666    145.77387    418.60387   -411.50137    430.21912     16.52734     16.52734    82.636698 
   21100    1010.9026   -3993.3081   -4160.4342   -375.90914   -722.51227   -1501.5547    1096.3395    16.525727    16.525727    82.628633 
   21200    994.18345   -3993.2667   -4157.6288    499.55131    573.60474    341.60271    583.44648    16.524083    16.524083    82.620415 
   21300    1014.5852   -3993.2248   -4160.9598   -121.43744   -704.15118   -339.73482    679.57368    16.523386    16.523386    82.616928 
   21400    998.33813   -3993.1819   -4158.2309    402.49595    952.86726   -389.52538    644.14596    16.523421    16.523421    82.617105 
   21500    995.81484   -3993.1304   -4157.7622    364.52898   -22.090703   -636.93145    1752.6091    16.524505    16.524505    82.622523 
   21600    1019.2836   -3993.0486   -4161.5604    -618.2724   -498.01979   -838.89707   -517.90033    16.526797    16.526797    82.633984 
   21700    988.26218   -3993.0028   -4156.3859    200.53674     758.5418    -442.5458    285.61422    16.528429    16.528429    82.642144 
   21800    1011.3881   -3992.9601   -4160.1666   -884.48484   -1325.5044   -1079.3013   -248.64882    16.529715    16.529715    82.648577 
   21900    1023.9741   -3992.9248    -4162.212   -794.93321   -1736.9924   -438.20727   -209.59998    16.529945    16.529945    82.649725 
   22000    995.39966   -3992.8965   -4157.4597   -251.73346    349.97714   -962.71323   -142.46428    16.529412    16.529412    82.647059 
   22100    1003.9316    -3992.885   -4158.8588    41.918992   -1229.0115    1017.8778     336.8906    16.528097    16.528097    82.640485 
   22200    984.70484   -3992.8723   -4155.6674    418.22851    293.56031   -559.54436    1520.6696    16.526761    16.526761    82.633807 
   22300    1002.5659   -3992.8564   -4158.6043    55.308535   -390.19464   -2.7201172    558.84036     16.52587     16.52587    82.629351 
   22400    1007.3234   -3992.8523   -4159.3868    98.991093    202.36744     186.9383   -92.332468     16.52506     16.52506    82.625302 
   22500     998.7145   -3992.8523   -4157.9635    411.24604    235.23009   -468.47526    1466.9833    16.524765    16.524765    82.623826 
   22600    1009.2176    -3992.836   -4159.6836    29.997611    -814.7544    213.43933    691.30791    16.525497    16.525497    82.627484 
   22700    1018.9377   -3992.8268   -4161.2814   -266.75282   -610.12634   -17.227217   -172.90489    16.526639    16.526639    82.633194 
   22800    1021.8798   -3992.8215   -4161.7624   -425.25552   -1552.3924   -49.377258    326.00312    16.528078    16.528078    82.640389 
   22900    966.98509   -3992.8163   -4152.6819    454.50535   -810.78685    365.22621    1809.0767    16.529249    16.529249    82.646245 
   23000    1010.1082   -3992.8199   -4159.8148   -599.88086   -566.92003   -945.06386   -287.65868    16.529698    16.529698    82.648489 
   23100    1017.1642   -3992.8112   -4160.9725   -911.74308    -1750.123   -319.36792   -665.73834    16.529636    16.529636    82.648178 
   23200    1013.2138   -3992.7962   -4160.3045   -415.47325    2051.9238   -1351.5445   -1946.7991    16.528754    16.528754    82.643768 
   23300    985.25206   -3992.7836   -4155.6691    338.03153    1564.0963    226.61883   -776.62051    16.527369    16.527369    82.636845 
   23400    1014.7597     -3992.75   -4160.5139    -142.1515    1730.3871   -1064.6916     -1092.15    16.526359    16.526359    82.631794 
   23500    992.78959   -3992.7151   -4156.8468    465.04773    175.06364     2234.413   -1014.3335    16.525608    16.525608    82.628042 
   23600    1024.5062   -3992.7045   -4162.0797   -484.15362    494.92921   -598.82767   -1348.5624    16.524984    16.524984    82.624922 
   23700     977.6136   -3992.6879   -4154.3106    1009.8906   -112.14823    1866.7244    1275.0956    16.524799    16.524799    82.623994 
   23800    1005.1805    -3992.682   -4158.8622   -162.92213    1147.5999   -890.14756   -746.21875    16.525127    16.525127    82.625634 
   23900    1003.2857   -3992.7025   -4158.5694    293.82637   -82.017118    934.82519    28.671023    16.525073    16.525073    82.625364 
   24000    1003.9876   -3992.7287   -4158.7117    100.96452    1267.1745   -164.89339   -799.38754    16.525386    16.525386    82.626931 
   24100    993.30047    -3992.748   -4156.9641    370.38339    188.71385    1432.5847   -510.14836    16.526108    16.526108    82.630542 
   24200    976.11781   -3992.7521   -4154.1276    202.42713    -1661.058    220.92009    2047.4193    16.527407    16.527407    82.637033 
   24300    988.77847   -3992.7506   -4156.2192    95.671244   -591.48071    -687.6908    1566.1852    16.528411    16.528411    82.642055 
   24400    1015.6829   -3992.7306   -4160.6471   -585.39034   -546.11211   -1527.8996    317.84064    16.529323    16.529323    82.646616 
   24500    1015.7734   -3992.7346    -4160.666   -788.03002   -345.18091   -500.77119    -1518.138    16.529255    16.529255    82.646274 
   24600    987.32543   -3992.7097    -4155.938    84.745221   -1466.1564    995.65137    724.74069    16.528795    16.528795    82.643973 
   24700     991.2186   -3992.6774   -4156.5493    158.18492   -314.15573     1075.782   -287.07154    16.528207    16.528207    82.641037 
   24800    1003.4409   -3992.6696   -4158.5622   -241.91488    -242.0054   -868.35544     384.6162    16.527135    16.527135    82.635674 
   24900    1027.1553   -3992.6417   -4162.4548   -614.05345   -740.06684    350.91034   -1453.0039    16.526338    16.526338    82.631692 
   25000    983.35888   -3992.6201   -4155.1926    749.36511    1355.6905    587.71742    304.68739    16.525743    16.525743    82.628714 
   25100    996.44399   -3992.5634   -4157.2993     197.3539   -603.94402    1401.5426   -205.53692    16.526064    16.526064    82.630321 
   25200    991.41141   -3992.5132    -4156.417    571.62804    2156.1045   -193.66501   -247.55531    16.526618    16.526618    82.633092 
   25300    1003.0036   -3992.4842   -4158.3045     159.2486   -546.57833    814.27182     210.0523    16.527609    16.527609    82.638043 
   25400    995.51957   -3992.4678   -4157.0508    437.06392    1618.7672   -955.84709    648.27164     16.52869     16.52869    82.643452 
   25500      1015.43   -3992.4466   -4160.3213   -435.38048    -1884.324   -383.74798    961.93053    16.530045    16.530045    82.650226 
   25600    962.90999   -3992.4785   -4151.6703    692.46435    250.24773    524.00189    1303.1434    16.530111    16.530111    82.650556 
   25700    999.98421    -3992.477   -4157.7981   -321.68614   -1146.1314   -395.63682     576.7098    16.530151    16.530151    82.650754 
   25800    993.59063   -3992.4873   -4156.7515    237.46867   -1211.5171    1187.9892    735.93393    16.529219    16.529219    82.646093 
   25900    972.82524   -3992.4914   -4153.3225    453.34596    991.24325     1148.996   -780.20142    16.528017    16.528017    82.640083 
   26000    976.83308    -3992.492   -4153.9856    707.94741     497.7749    1339.2577    286.80963    16.526655    16.526655    82.633276 
   26100    1018.6261   -3992.4939    -4160.897   -67.287961   -722.78599    464.75476    56.167343    16.525657    16.525657    82.628284 
   26200    977.01138   -3992.5382   -4154.0614    876.09991    10.479947    2442.0306     175.7892    16.524572    16.524572    82.622858 
   26300    1022.4519    -3992.524   -4161.5596   -7.8371639   -1465.7035    42.271733    1399.9203    16.525131    16.525131    82.625655 
   26400    998.65336   -3992.5397   -4157.6408    410.10927    2011.8032    493.67857    -1275.154     16.52598     16.52598    82.629902 
   26500     1030.023   -3992.5657   -4162.8529   -740.00527   -625.48567   -762.81006   -831.72009    16.527226    16.527226     82.63613 
   26600    1006.9054   -3992.6203   -4159.0857   -257.66502   -750.81422   -542.03457    519.85373    16.527793    16.527793    82.638966 
   26700    991.77845   -3992.6563   -4156.6208    144.38857   -800.11057   -221.98923    1455.2655    16.528078    16.528078    82.640391 
   26800    1006.0212   -3992.6878   -4159.0069   -352.66404   -121.71265   -1189.7949    253.51541    16.528312    16.528312    82.641562 
   26900    968.26989   -3992.7355   -4152.8135    959.92325    577.81103    635.18247    1666.7763    16.528109    16.528109    82.640544 
   27000    1010.0303   -3992.7489   -4159.7309   -206.84852   -464.34658    43.887102    -200.0861    16.528542    16.528542    82.642708 
   27100    980.08778   -3992.7847   -4154.8165    723.49017    2161.4761    390.64776   -381.65331     16.52857     16.52857     82.64285 
   27200    991.96163   -3992.8094   -4156.8042   -27.642567   -72.518832    533.70368   -544.11255    16.528833    16.528833    82.644165 
   27300    997.36157   -3992.8347   -4157.7223   -201.76995   -1358.6219   -839.71084    1593.0229    16.528485    16.528485    82.642423 
   27400    1005.6993   -3992.8486   -4159.1145   -447.29385   -534.91642   -202.68484   -604.28028    16.527723    16.527723    82.638616 
   27500    978.70573   -3992.8719   -4154.6752    811.03351     366.7848    118.20603    1948.1097    16.526382    16.526382    82.631912 
   27600    996.25073   -3992.8897   -4157.5936    238.36733   -53.111146    189.68454    578.52858    16.525465    16.525465    82.627324 
   27700    1008.5749   -3992.9053   -4159.6466    194.90973    912.41141   -1044.5359    716.85365    16.525078    16.525078    82.625389 
   27800    1015.9318   -3992.9271   -4160.8847    -135.2277   -581.80786   -454.71371    630.83846    16.525419    16.525419    82.627094 
   27900    995.28941   -3992.9502   -4157.4951    359.25799   -252.44945     146.0912    1184.1322    16.526156    16.526156    82.630778 
   28000    1004.3411    -3992.965   -4159.0064   -109.88383    -705.9364   -850.61942    1226.9043    16.527214    16.527214    82.636068 
   28100    1013.9804     -3992.97    -4160.605   -628.92793   -1754.6053    381.02445   -513.20289    16.528507    16.528507    82.642534 
   28200    999.76906    -3992.998   -4158.2836   -270.76286    -419.6941   -621.89297    229.29849    16.529051    16.529051    82.645256 
   28300    980.27282   -3993.0047    -4155.067    75.787802   -1085.4782    1374.0053   -61.163719    16.529396    16.529396    82.646979 
   28400    1018.6307   -3993.0062     -4161.41   -864.30231   -1815.4332    214.51237   -991.98611    16.529053    16.529053    82.645265 
   28500    1019.0329   -3993.0168   -4161.4871   -467.85169   -1283.8663   -42.606254   -77.082551    16.527728    16.527728     82.63864 
   28600    1002.0203   -3993.0454   -4158.7031    12.291952   -686.09919   -829.38731    1552.3624    16.526107    16.526107    82.630535 
   28700    992.78293   -3993.0797   -4157.2103    349.80829    475.90506    517.87348    55.646342    16.524662    16.524662    82.623308 
   28800    986.57095   -3993.1104    -4156.214    708.99023    -230.6434    1138.6143    1218.9998    16.523632    16.523632    82.618162 
   28900    1013.7012    -3993.155   -4160.7439    203.27373    385.65374    540.87316   -316.70572    16.523193    16.523193    82.615966 
   29000    1002.4521    -3993.216   -4158.9451    214.74737    70.287902    -116.0982    690.05242    16.523314    16.523314    82.616571 
   29100    975.32992   -3993.2704   -4154.5156    1021.8135    2661.6848   -274.85759    678.61344    16.523936    16.523936    82.619682 
   29200    1013.1764   -3993.3019    -4160.804   -178.53815    13.425568   -681.72772     132.6877    16.525346    16.525346    82.626731 
   29300    1014.8386   -3993.3328   -4161.1097   -539.59138   -1427.0308    996.34362   -1188.0869    16.526788    16.526788    82.633938 
   29400     993.2177   -3993.3396   -4157.5421     106.7651    970.35577   -388.42495   -261.63551    16.528571    16.528571    82.642853 
   29500    996.47169   -3993.3375   -4158.0779   -544.41954   -191.33035    -947.6726   -494.25567    16.529852    16.529852    82.649262 
   29600     1014.171   -3993.3355    -4161.002   -770.09913   -1759.4096    500.97987   -1051.8676    16.530013    16.530013    82.650066 
   29700    1001.2057   -3993.3173   -4158.8403   -66.305201    773.62937   -392.46717    -580.0778    16.529549    16.529549    82.647743 
   29800     1016.593   -3993.2895   -4161.3564   -599.23262   -161.03385   -1550.3322    -86.33178    16.528555    16.528555    82.642776 
   29900    993.94945   -3993.2655    -4157.589    185.22428     523.1664   -503.23285    535.73928     16.52683     16.52683    82.634152 
   30000    990.90035    -3993.247   -4157.0663    401.87846   -83.307999    406.31981    882.62356     16.52508     16.52508      82.6254 
   30100    1021.3668   -3993.2283   -4162.0845   -183.07436   -791.77769     249.7025   -7.1478873    16.523821    16.523821    82.619105 
   30200    1017.8508   -3993.2242   -4161.4991   -99.847114    147.93353   -297.70053   -149.77434    16.523095    16.523095    82.615477 
   30300    1012.4315   -3993.2135   -4160.5924   -7.7097077   -304.04774    249.31137    31.607244    16.523441    16.523441    82.617205 
   30400     972.1707   -3993.2126   -4153.9355    757.58842   -88.841904    1179.5499    1182.0572    16.524682    16.524682    82.623411 
   30500    1004.7663   -3993.2106   -4159.3223    -80.53961   -848.48281    306.77003    300.09395    16.526462    16.526462    82.632308 
   30600    988.35852   -3993.2289    -4156.628   -70.606811    568.03422   -1603.3058    823.45117    16.527936    16.527936     82.63968 
   30700    989.46886   -3993.2346   -4156.8173   -165.97772     497.7732   -1392.4431    396.73674     16.52907     16.52907     82.64535 
   30800    994.51972    -3993.215   -4157.6327   -409.69707   -1003.0547   -1092.3983    866.36184    16.529829    16.529829    82.649145 
   30900    995.72032   -3993.2085   -4157.8247   -236.55914   -265.65009   -506.13849    62.111161    16.529356    16.529356    82.646782 
   31000    999.88165   -3993.1988    -4158.503   -190.51302   -248.54854   -199.23919   -123.75132    16.527988    16.527988    82.639938 
   31100    1015.0464   -3993.1669   -4160.9782   -539.01849    -725.8748    89.309117   -980.48978    16.526586    16.526586    82.632931 
   31200    1007.9343   -3993.1238   -4159.7593    74.708056    1001.7378     5.479101   -783.09271    16.525406    16.525406     82.62703 
   31300      979.963   -3993.1306   -4155.1417    704.16006   -81.146066    329.93772    1863.6885    16.523943    16.523943    82.619715 
   31400    1010.8561   -3993.1226   -4160.2411   -17.091719   -254.62384   -444.15757    647.50625    16.523469    16.523469    82.617344 
   31500    998.73171   -3993.1274   -4158.2414    556.42775    276.39707    1164.5618    228.32438    16.523434    16.523434    82.617172 
   31600    989.81151   -3993.1318   -4156.7711     527.4704    795.52362   -945.23315    1732.1207    16.524315    16.524315    82.621574 
   31700    992.23151   -3993.1482   -4157.1877    285.02275    350.34513    177.05848    327.66464    16.525597    16.525597    82.627985 
   31800    998.65532   -3993.1616    -4158.263    124.27056    616.81905   -161.37477   -82.632605    16.526981    16.526981    82.634906 
   31900    1000.5781   -3993.1656   -4158.5849    -76.53271    479.34813    336.02256   -1044.9688    16.528295    16.528295    82.641475 
   32000    982.25679   -3993.1542   -4155.5446     224.0146    388.24816    63.842731     219.9529    16.529377    16.529377    82.646886 
   32100    1002.2982   -3993.1447   -4158.8483   -372.02723   -475.70893   -177.73088   -462.64188    16.530159    16.530159    82.650794 
   32200    974.32227   -3993.1281   -4154.2067    287.65123   -274.65716    304.82885    832.78201    16.530386    16.530386    82.651928 
   32300    1016.2496   -3993.0854   -4161.0956   -862.65741   -1230.5003   -1733.7586     376.2866    16.530344    16.530344     82.65172 
   32400    988.72796    -3993.082   -4156.5422   -145.35238    209.63362   -806.06912    160.37836    16.528805    16.528805    82.644024 
   32500    995.36848   -3993.0814   -4157.6394    31.079337   -315.75889   -85.591215    494.58812    16.526621    16.526621    82.633103 
   32600    1023.2364   -3993.1007    -4162.266   -273.61945    -1082.232   -86.593906    347.96753    16.524232    16.524232    82.621162 
   32700    989.51921    -3993.128    -4156.719    939.55706    1499.8778    1167.6705    151.12292    16.522288    16.522288    82.611438 
   32800    1005.6959   -3993.1422   -4159.4076    388.93816    225.00679     121.6517      820.156    16.521893    16.521893    82.609465 
   32900    986.88442   -3993.1703   -4156.3258    737.95897    436.25634    1770.5326    7.0879625     16.52219     16.52219    82.610952 
   33000    990.89614   -3993.2176   -4157.0363    403.06665    833.84519   -1026.3398    1401.6945    16.523167    16.523167    82.615835 
   33100    1008.7027   -3993.2363   -4159.9988   -255.85422   -956.13941    203.60208   -15.025337    16.525145    16.525145    82.625726 
   33200    1008.4263    -3993.227   -4159.9438   -564.05748   -2646.1349   -469.05661    1423.0191    16.527401    16.527401    82.637007 
   33300    992.88154   -3993.2176   -4157.3644   -6.3051971   -96.541295    580.44849   -502.82278    16.528994    16.528994    82.644971 
   33400     990.7295   -3993.2071   -4156.9981    -184.7409   -317.96358   -132.78192    -103.4772    16.529717    16.529717    82.648583 
   33500    988.30369   -3993.1802   -4156.5702    103.24886      1056.46    407.24431   -1153.9577    16.529786    16.529786    82.648931 
   33600    994.97028    -3993.157   -4157.6492   -83.012251   -1448.0843    638.08693    560.96058     16.52931     16.52931    82.646549 
   33700    1003.3723   -3993.1304   -4159.0116   -391.61096   -1706.4287    351.81488    179.78095    16.528524    16.528524    82.642622 
   33800    1010.2175   -3993.1266   -4160.1396    -305.2349    -442.9275   -93.266004   -379.51119    16.527173    16.527173    82.635863 
   33900    1002.7073   -3993.1235   -4158.8948    148.53543    423.93856    465.08671   -443.41898    16.525879    16.525879    82.629397 
   34000    1004.4263   -3993.1411   -4159.1966    83.399304    247.17212   -478.14423    481.17002    16.524498    16.524498     82.62249 
   34100    988.94753   -3993.1517   -4156.6482    700.16087   -138.81468    1803.9475    435.34983    16.523613    16.523613    82.618064 
   34200    1003.5393   -3993.1745   -4159.0834     718.2233   -309.69558     1708.828    755.53747    16.523496    16.523496    82.617478 
   34300    1013.5187   -3993.2091   -4160.7678   -3.2883925    -431.7279    570.36536   -148.50264    16.524463    16.524463    82.622316 
   34400    992.97233   -3993.2293   -4157.3911    205.89412   -62.644697   -83.797587    764.12466    16.526128    16.526128    82.630638 
   34500    1005.2382   -3993.2093   -4159.3991   -192.90514   -550.51536   -509.21608    481.01602    16.528446    16.528446    82.642231 
   34600    994.21637   -3993.1869   -4157.5544   -156.29294   -1271.9548    1271.4183   -468.34234    16.530672    16.530672    82.653358 
   34700    1000.9081   -3993.1535   -4158.6273   -320.63216    32.347122   -1373.4914     379.2478     16.53238     16.53238    82.661899 
   34800    984.38016   -3993.1361   -4155.8775   -380.59163   -102.02412   -600.38998   -439.36079    16.532871    16.532871    82.664353 
   34900    993.28839   -3993.1194   -4157.3335   -436.75736   -338.20707   -984.91424    12.849225    16.532191    16.532191    82.660956 
   35000    985.57306   -3993.1169   -4156.0555   -361.26537   -1015.1536    466.84196   -535.48446    16.530291    16.530291    82.651453 
   35100    1014.5533   -3993.0989   -4160.8287   -652.38632    119.09544   -2053.6985   -22.555863    16.527709    16.527709    82.638547 
   35200     971.7336   -3993.0925   -4153.7432    934.23118    761.96522    933.76225    1106.9661    16.524486    16.524486    82.622432 
   35300    1015.8633   -3993.0671   -4161.0134    17.693077   -1084.0492   -276.27819    1413.4067    16.522258    16.522258    82.611288 
   35400    982.68644   -3993.0724   -4155.5338    1055.4419    1202.4764    1868.3505    95.498746    16.520694    16.520694    82.603471 
   35500    989.92857    -3993.074   -4156.7327    1087.7679     1250.847    1893.7212    118.73561     16.52103     16.52103    82.605152 
   35600    983.29052   -3993.1036   -4155.6649    987.83579    1005.4412    313.43026    1644.6359    16.522536    16.522536    82.612682 
   35700    1001.7368   -3993.1155   -4158.7263    192.09118    1298.7986   -598.35444   -124.17063    16.525297    16.525297    82.626483 
   35800    984.32505   -3993.1308   -4155.8631   -112.34202   -1763.7726   -545.34774    1972.0943    16.528196    16.528196    82.640978 
   35900    990.22327   -3993.1343   -4156.8417   -516.60376   -2085.1596   -183.75265    719.10095    16.530522    16.530522     82.65261 
   36000    1020.0475   -3993.1166   -4161.7547   -974.85153   -630.53835   -2022.8333   -271.18292    16.531812    16.531812    82.659062 
   36100     1008.918   -3993.0953   -4159.8934   -855.18202   -927.15216   -897.53232    -740.8616     16.53185     16.53185    82.659249 
   36200    989.65775   -3993.0669   -4156.6809   -26.212294     575.5493   -32.296146   -621.89004    16.530753    16.530753    82.653767 
   36300    1032.4429   -3993.0592   -4163.7465   -1120.4997   -866.51094   -833.61895   -1661.3692    16.528795    16.528795    82.643973 
   36400    998.10848   -3993.0616   -4158.0726    93.341247   -475.70328    1424.6182   -668.89119    16.526096    16.526096    82.630481 
   36500    995.94385    -3993.087   -4157.7401    676.90353    1628.6495     103.9338    298.12727     16.52326     16.52326    82.616301 
   36600    1018.4375   -3993.1204   -4161.4923    129.45305    1142.1084   -1784.5684    1030.8192    16.521484    16.521484    82.607418 
   36700    984.80814   -3993.1619   -4155.9741    1279.4207    1323.3182    1458.9698    1055.9742    16.520917    16.520917    82.604587 
   36800    1032.7396   -3993.1955   -4163.9319   -332.31173   -869.59461    264.12594   -391.46652    16.522037    16.522037    82.610185 
   36900    971.89384   -3993.2535   -4153.9306    1098.5147     771.8026    1179.2598    1344.4815    16.523712    16.523712     82.61856 
   37000    975.87958   -3993.2661   -4154.6021    694.56854    -625.4813    2164.3377    544.84919    16.526712    16.526712    82.633562 
   37100    982.36014   -3993.2614   -4155.6688    23.175031   -1427.9702    555.57783    941.91748    16.529696    16.529696    82.648482 
   37200    1001.3163   -3993.2649   -4158.8062     -725.935   -1333.1053   -1501.4187    656.71896    16.531517    16.531517    82.657585 
   37300    981.90921   -3993.2535   -4155.5864   -137.07294    805.70831    1170.0724   -2386.9995    16.532037    16.532037    82.660187 
   37400    1009.3625   -3993.2054    -4160.077   -973.13079   -1262.0213    -321.1676   -1336.2035    16.531857    16.531857    82.659284 
   37500    1003.9419   -3993.1491   -4159.1245   -529.89701   -246.97354   -243.72519   -1098.9923    16.530459    16.530459    82.652296 
   37600    990.96968   -3993.1146   -4156.9454    410.77633    456.44728     377.7639     398.1178    16.527782    16.527782     82.63891 
   37700    1010.6761    -3993.094   -4160.1828   -83.503571   -1169.4496    252.16591    666.77295    16.525051    16.525051    82.625256 
   37800    1037.4448   -3993.0773   -4164.5915   -650.08045    49.466237   -1186.9406   -812.76695    16.522877    16.522877    82.614385 
   37900    988.62225   -3993.1038   -4156.5465    1002.1695    963.54258     591.9108     1451.055    16.520715    16.520715    82.603573 
   38000    1012.0136   -3993.1367   -4160.4465    450.96513   -240.21257    1497.9123    95.195659    16.519796    16.519796    82.598982 
   38100    985.15005   -3993.1584    -4156.027     1092.986    806.65781     2028.805    443.49532     16.52082     16.52082    82.604099 
   38200    1008.5561   -3993.1658    -4159.904   -17.267568   -566.83982    -469.8524    984.88952    16.523359    16.523359    82.616796 
   38300    983.60386   -3993.1913   -4155.8044    339.92564    7.4530877    763.08989    249.23393    16.525974    16.525974    82.629871 
   38400     1024.968   -3993.1939   -4162.6454   -1031.8238   -957.32795   -1411.2748   -726.86872    16.528717    16.528717    82.643583 
   38500    1007.7534   -3993.1936   -4159.7992   -705.94695   -1256.3692   -1098.1501    236.67848     16.53114     16.53114      82.6557 
   38600    985.93036   -3993.1771   -4156.1748   -161.82288   -857.28702    1176.9214   -805.10305    16.532871    16.532871    82.664356 
   38700    1022.7769   -3993.1566   -4162.2459   -1349.2973   -49.092807   -2722.5137   -1276.2855    16.533182    16.533182    82.665909 
   38800    964.26307   -3993.1591   -4152.5747    623.94085    1225.7264   -665.36197    1311.4581    16.531471    16.531471    82.657357 
   38900    977.80782   -3993.1309   -4154.7857     176.1017    795.83647   -517.03978     249.5084    16.529411    16.529411    82.647054 
   39000    1004.6224   -3993.1105   -4159.1984    28.778013    32.261069    299.27472   -245.20175    16.526678    16.526678    82.633391 
   39100    989.07001   -3993.1248   -4156.6415    766.30033     1187.164     437.5619    674.17503    16.523715    16.523715    82.618575 
   39200    1002.7554   -3993.1097    -4158.889    503.93369     1061.244    1034.4016   -583.84452    16.522459    16.522459    82.612293 
   39300    1009.0045   -3993.1105   -4159.9229    301.95456    219.83464      1696.69   -1010.6609    16.522017    16.522017    82.610083 
   39400    997.06362   -3993.1183   -4157.9566    936.32892    1478.0747     962.1866    368.72545    16.522594    16.522594    82.612968 
   39500    993.87726   -3993.1591   -4157.4706    419.53313    -216.5219   -129.96294    1605.0842    16.524027    16.524027    82.620133 
   39600    993.76339   -3993.1909   -4157.4836    210.98588    1027.7734   -447.30234    52.486549     16.52619     16.52619     82.63095 
   39700    983.10307   -3993.1851   -4155.7154     154.7004   -2068.0907    85.827088    2446.3648     16.52882     16.52882      82.6441 
   39800    1000.5991   -3993.1612   -4158.5839   -642.04246   -170.63454   -767.42823   -988.06461    16.531116    16.531116    82.655582 
   39900    1001.2866   -3993.1417   -4158.6781    -578.0258   -813.41166   -1244.5264    323.86067    16.532189    16.532189    82.660944 
   40000    985.82034   -3993.1063   -4156.0858   -171.55469   -349.80763    488.52173   -653.37818    16.532205    16.532205    82.661027 
   40100    1023.0029   -3993.0499   -4162.1766   -1277.9591   -2158.5976   -1142.1402   -533.13941    16.531596    16.531596    82.657982 
   40200      998.942   -3993.0066   -4158.1554   -385.14716   -708.82124    108.86265   -555.48289    16.529557    16.529557    82.647787 
   40300    991.96359   -3992.9488   -4156.9439    172.94615    1127.4045   -938.27546    329.70939    16.527215    16.527215    82.636075 
   40400    999.29634   -3992.8955   -4158.1029    337.99083    1348.3652   -12.011636   -322.38105    16.524843    16.524843    82.624214 
   40500    987.39712   -3992.8428    -4156.083    733.03172    2398.3491   -591.58241    392.32847      16.5232      16.5232    82.615998 
   40600    1002.5344   -3992.8298   -4158.5725    577.80267   -735.64037    2008.6186     460.4298    16.522026    16.522026    82.610128 
   40700     1018.916   -3992.8378   -4161.2888    115.89996    714.78455   -357.51271   -9.5719451    16.521757    16.521757    82.608787 
   40800    1035.6434   -3992.8586   -4164.0751   -436.40819   -904.65421   -59.869774   -344.70058    16.522737    16.522737    82.613684 
   40900    984.20502   -3992.8853   -4155.5978    583.30612    690.78417    895.66638    163.46781    16.524622    16.524622    82.623109 
   41000    994.38314   -3992.8879   -4157.2831   -7.3163222   -610.31183   -1038.1444    1626.5073    16.527549    16.527549    82.637746 
   41100    1001.9195   -3992.8788   -4158.5198   -301.84114    434.89448   -1309.1616    -31.25625    16.530362    16.530362    82.651812 
   41200    993.02018   -3992.8668   -4157.0366   -387.79172   -807.96233   -1832.0565    1476.6437    16.532378    16.532378    82.661892 
   41300    996.58388   -3992.8703   -4157.6293    -594.0197    -230.6719   -423.71499   -1127.6722    16.533029    16.533029    82.665147 
   41400    969.97798   -3992.8435   -4153.2038     467.3961    1075.4523   -1382.3972    1709.1333     16.53263     16.53263    82.663148 
   41500    1007.8135   -3992.8182   -4159.4337   -523.44807   -329.97737   -1489.2124    248.84556    16.531071    16.531071    82.655355 
   41600    1005.5516   -3992.7993   -4159.0409   -524.83359   -127.72764   -726.29668   -720.47646    16.528502    16.528502    82.642508 
   41700    999.57171    -3992.796   -4158.0489    429.18374   -1329.0168    817.37508    1799.1929    16.525402    16.525402    82.627009 
   41800    978.94183   -3992.7915   -4154.6338    898.52516    771.69335    1687.1456    236.73657    16.523061    16.523061    82.615306 
   41900    1018.4399   -3992.7501   -4161.1224    27.421201    687.92687    735.63953   -1341.3028    16.522519    16.522519    82.612593 
   42000    1003.5647    -3992.722   -4158.6351    315.82861    1131.1655    574.28711   -757.96677    16.522958    16.522958    82.614789 
   42100    1003.0276   -3992.7085   -4158.5328    30.587108   -285.53148    967.15153   -589.85873    16.524156    16.524156    82.620782 
   42200    999.56541   -3992.7096   -4157.9615       351.49     194.9131    41.428573    818.12834    16.525642    16.525642    82.628212 
   42300    985.26655   -3992.7207   -4155.6087    532.85151    295.53013    376.37239    926.65202    16.527442    16.527442    82.637209 
   42400    1026.2541   -3992.7081   -4162.3722   -934.61306   -588.44605   -291.60465   -1923.7885    16.529642    16.529642    82.648209 
   42500    1006.2587   -3992.6834   -4159.0418   -619.48743   -1236.9868   -1313.8726    692.39713    16.531447    16.531447    82.657236 
   42600    979.01693   -3992.6664   -4154.5211    62.584042   -622.71325    181.16608     629.2993    16.532146    16.532146    82.660728 
   42700     984.6546   -3992.6437   -4155.4305   -7.3889405    468.44737   -210.17346   -280.44073    16.531907    16.531907    82.659535 
   42800     1010.714   -3992.6133   -4159.7083   -492.15457   -573.57492     258.8737   -1161.7625    16.531019    16.531019    82.655095 
   42900    1010.8146   -3992.6014    -4159.713   -688.42225    957.67603   -1994.7683   -1028.1745     16.52956     16.52956    82.647799 
   43000    1017.2066   -3992.5934   -4160.7617   -356.59443    1066.5078   -813.73354   -1322.5576    16.527716    16.527716     82.63858 
   43100    1009.1201   -3992.5967   -4159.4282   -30.301258   -1252.9105   -34.902656    1196.9094    16.525835    16.525835    82.629174 
   43200    1009.6473   -3992.6224    -4159.541    67.839246    1187.4489   -574.99493   -408.93623    16.524195    16.524195    82.620975 
   43300    993.19425   -3992.6586   -4156.8572    624.41434    139.45232    305.17675    1428.6139      16.5233      16.5233    82.616499 
   43400    1033.8475   -3992.7084   -4163.6279   -443.92083    942.19219    -1324.857   -949.09768    16.523558    16.523558    82.617788 
   43500    1033.1973   -3992.7692   -4163.5812   -401.44241   -1179.0412   -284.01427     258.7282    16.524702    16.524702    82.623509 
   43600    1001.9645   -3992.8274   -4158.4759    140.32399    238.12053   -695.67566    878.52708    16.526636    16.526636    82.633181 
   43700    998.29111   -3992.8784   -4157.9196   -232.55041   -114.92498   -325.45915   -257.26708     16.52884     16.52884    82.644202 
   43800    953.54706   -3992.9173   -4150.5613    875.36967    1137.9107    544.31288    943.88542     16.53047     16.53047     82.65235 
   43900    1005.6985   -3992.9131   -4159.1789   -1041.2548   -713.15677   -1708.6399   -701.96768    16.531819    16.531819    82.659096 
   44000    997.89284   -3992.9257   -4157.9011   -469.26044    124.08143   -926.94317   -604.91957    16.531217    16.531217    82.656086 
   44100    989.18478   -3992.9344   -4156.4701   -89.582065     1344.313   -1575.4241   -37.635153    16.529514    16.529514    82.647572 
   44200    997.16436   -3992.9418   -4157.7968     222.9903    160.12078    543.75434   -34.904219     16.52701     16.52701    82.635051 
   44300    1003.1014   -3992.9337   -4158.7702    215.77808   -1125.4636    271.46101    1501.3368    16.524891    16.524891    82.624453 
   44400    1019.5858    -3992.916   -4161.4777   -40.300301   -231.08985    429.29966   -319.11072    16.523692    16.523692    82.618458 
   44500    1009.4613   -3992.9492   -4159.8371    122.18156   -1681.7859    593.03747    1455.2931    16.522787    16.522787    82.613933 
   44600    1003.6483   -3992.9669   -4158.8938   -6.6649227    -483.6325   -59.028415    522.66614    16.522822    16.522822    82.614111 
   44700     1002.517    -3992.981   -4158.7209    493.88855   -209.10447     1166.095    524.67511    16.523493    16.523493    82.617465 
   44800    1021.7394    -3993.003   -4161.9208   -216.70678   -1414.7363    1005.3598    -240.7438    16.524971    16.524971    82.624854 
   44900    984.55882    -3993.035   -4155.8059    523.14742    603.55623    482.85451    483.03152    16.526956    16.526956    82.634778 
   45000    996.98609   -3993.0302   -4157.8557   -88.831528    340.80819   -603.17812   -4.1246536    16.529591    16.529591    82.647954 
   45100    983.04594   -3993.0458   -4155.5666   -245.48988   -508.99025   -309.32888    81.849495    16.531174    16.531174    82.655868 
   45200    976.40978    -3993.038   -4154.4617    143.79436   -900.44666    1079.2717    252.55799    16.531819    16.531819    82.659095 
   45300    981.38379    -3993.014   -4155.2601    -121.0625    455.60642     753.1229   -1571.9168    16.531648    16.531648    82.658242 
   45400    1006.0424    -3992.991   -4159.3137   -386.99523   -1373.6903     328.9164   -116.21175    16.530252    16.530252    82.651258 
   45500    991.68775   -3992.9611   -4156.9106   -23.484485    593.97451    838.89807    -1503.326    16.528235    16.528235    82.641174 
   45600    997.07811   -3992.9367   -4157.7774    50.739444    919.46381    646.99482   -1414.2403    16.525702    16.525702    82.628508 
   45700    1014.3386   -3992.9236   -4160.6179   -26.973145   -935.24657    113.34978    740.97735     16.52338     16.52338    82.616899 
   45800    1014.2431   -3992.9316     -4160.61    485.41291    1081.6442    447.66356   -73.069024    16.521626    16.521626    82.608128 
   45900    990.91761    -3992.946   -4156.7682    1165.2717    336.05151    533.19417    2626.5694    16.521463    16.521463    82.607317 
   46000    997.19779   -3992.9489   -4157.8094    821.34367    633.65772   -1091.0605    2921.4338    16.523204    16.523204    82.616018 
   46100    1017.2703   -3992.9552   -4161.1341   -283.63701   -571.68988   -1214.8015    935.58032    16.526023    16.526023    82.630116 
   46200    996.08655    -3992.951   -4157.6277   -350.20869   -16.725444   -863.70714   -170.19348    16.529149    16.529149    82.645747 
   46300    987.01254   -3992.9336   -4156.1102   -59.496525   -534.79043   -126.20226    482.50312     16.53177     16.53177    82.658852 
   46400    978.36895    -3992.918   -4154.6656   -236.26104   -470.92608   -961.08669    723.22966    16.533285    16.533285    82.666423 
   46500    1029.4871   -3992.8947   -4163.0934   -1695.1776   -1414.7384   -2493.4713   -1177.3232    16.533218    16.533218    82.666091 
   46600    1016.7827   -3992.8731   -4160.9714   -1135.6188     -285.709   -1758.4761   -1362.6713    16.531264    16.531264    82.656318 
   46700    994.28664   -3992.8525   -4157.2316   -86.595965   -917.29409    -308.4483    965.95449    16.528009    16.528009    82.640044 
   46800    1024.2826   -3992.8074   -4162.1457   -180.79893   -769.18918   -907.84373    1134.6361    16.524737    16.524737    82.623684 
   46900    1015.7868   -3992.7978   -4160.7315    290.10524     1039.877   -569.14669    399.58542    16.521819    16.521819    82.609094 
   47000    1006.9466   -3992.8057   -4159.2779     579.1657      -1875.1    2044.8467    1567.7504    16.520105    16.520105    82.600523 
   47100    1009.3294   -3992.8349    -4159.701    699.03276     1431.046    936.89577   -270.84346    16.519859    16.519859    82.599296 
   47200    1008.5204   -3992.8661   -4159.5984    494.30215    782.15818    812.04981   -111.30154    16.521385    16.521385    82.606927 
   47300    1003.1539    -3992.906   -4158.7512    123.70879   -18.400719     353.7958    35.731292    16.523969    16.523969    82.619843 
   47400    1017.1845   -3992.9327   -4161.0974   -251.04393   -934.01373    432.46856   -251.58662    16.526964    16.526964     82.63482 
   47500    990.59058    -3992.963   -4156.7312   -426.62185   -1164.3545   -889.19343     773.6824    16.529524    16.529524    82.647618 
   47600    977.94106   -3992.9532   -4154.6301    5.3059728   -1710.1457    576.08605    1149.9775    16.531525    16.531525    82.657625 
   47700    997.62476   -3992.9233   -4157.8544   -616.42571   -2179.5251   -446.53546    776.78339    16.532452    16.532452    82.662262 
   47800    973.55547   -3992.9181   -4153.8699     -131.904   -902.82033    58.135941    448.97238    16.531442    16.531442    82.657208 
   47900    1010.4942   -3992.9166   -4159.9753   -485.58918   -529.87389   -1493.8175    566.92385    16.529129    16.529129    82.645644 
   48000    983.05712   -3992.9137   -4155.4364     215.3585   -68.530754    1595.0325   -880.42627    16.526196    16.526196    82.630979 
   48100    1023.5204   -3992.8714   -4162.0836   -252.29824   -517.93359    376.99524   -615.95637    16.523964    16.523964    82.619822 
   48200     1000.921   -3992.8388   -4158.3148     493.9556    5.6754474    277.10364    1199.0877    16.522324    16.522324     82.61162 
   48300    1019.3527   -3992.8075   -4161.3307    98.857229   -544.19577    135.53643    705.23103    16.522016    16.522016     82.61008 
   48400    988.51214   -3992.8181   -4156.2426    890.02773    73.647006     2025.877    570.55914    16.522243    16.522243    82.611217 
   48500    979.97807   -3992.8241   -4154.8377    711.96274    693.52395    605.42907    836.93519    16.523605    16.523605    82.618023 
   48600    993.85573   -3992.8128   -4157.1207    187.92627   -1026.0095   -622.36297    2212.1513    16.525882    16.525882    82.629409 
   48700    1009.8297   -3992.7923   -4159.7412   -617.52262   -360.36181   -645.05548   -847.15057    16.528371    16.528371    82.641853 
   48800    1005.3962   -3992.7992   -4159.0151   -391.72642    1.1950811   -1158.9196   -17.454746    16.529959    16.529959    82.649794 
   48900    982.77999   -3992.8083   -4155.2851   -16.923872    284.12492   -190.87057   -144.02597    16.530965    16.530965    82.654824 
   49000    987.50756   -3992.7974   -4156.0558   -290.81498   -590.06724    260.07359   -542.45129    16.531462    16.531462    82.657311 
   49100    994.67807   -3992.7722   -4157.2161   -370.21141    199.92209   -246.55806   -1063.9982    16.531023    16.531023    82.655116 
   49200    1023.5154   -3992.7168   -4161.9281   -731.15886   -808.80305    123.81378   -1508.4873    16.530001    16.530001    82.650003 
   49300    1009.0661   -3992.6798   -4159.5024   -81.215419     1021.051    174.92429   -1439.6216    16.528239    16.528239    82.641194 
   49400    978.08547   -3992.6466   -4154.3473    626.00478    545.00135    278.74056    1054.2724    16.526767    16.526767    82.633833 
   49500     1005.204   -3992.6034   -4158.7875    174.72018    109.92818   -440.82586    855.05821    16.526085    16.526085    82.630423 
   49600    1007.5446   -3992.5638   -4159.1348    -91.58597   -677.23747    321.15267    81.326888    16.525996    16.525996    82.629982 
   49700    1040.2026   -3992.5009    -4164.471   -709.68422   -350.51793   -2249.2298    470.69505    16.526714    16.526714    82.633569 
   49800    984.72823   -3992.4862   -4155.2851    554.82778    1971.5242    190.06351   -497.10433    16.527249    16.527249    82.636243 
   49900    985.81476    -3992.466   -4155.4446    64.621492    25.495783   -406.91611     575.2848    16.528259    16.528259    82.641297 
   50000    996.18488     -3992.43    -4157.123    133.05388   -126.10053    407.35308    117.90907    16.529299    16.529299    82.646494 
Loop time of 243.503 on 1 procs for 50000 steps with 1280 atoms

Pair  time (%) = 215.176 (88.3672)
Neigh time (%) = 19.5293 (8.02018)
Comm  time (%) = 3.29623 (1.35367)
Outpt time (%) = 0.113519 (0.0466191)
Other time (%) = 5.38702 (2.21231)

Nlocal:    1280 ave 1280 max 1280 min
Histogram: 1 0 0 0 0 0 0 0 0 0
Nghost:    3991 ave 3991 max 3991 min
Histogram: 1 0 0 0 0 0 0 0 0 0
Neighs:    47134 ave 47134 max 47134 min
Histogram: 1 0 0 0 0 0 0 0 0 0

Total # of neighbors = 47134
Ave neighs/atom = 36.8234
Neighbor list builds = 5000
Dangerous builds = 0
unfix		1

# Melt half the system
region  liquid block INF INF INF INF INF ${nzhalf}
region  liquid block INF INF INF INF INF 10
group	liquid_group region liquid
641 atoms in group liquid_group

# Heat up one side to Tmelt to make sure it is melted
fix 2 liquid_group npt temp ${Tmelt} ${Tmelt} 1 z 0 0 10 drag 1.0
fix 2 liquid_group npt temp 2000 ${Tmelt} 1 z 0 0 10 drag 1.0
fix 2 liquid_group npt temp 2000 2000 1 z 0 0 10 drag 1.0
run		${eqsteps}
run		50000
Memory usage per processor = 3.13778 Mbytes
Step Temp TotEng PotEng Press Pxx Pyy Pzz Lx Ly Lz 
   50000    996.18488     -3992.43    -4157.123    133.05388   -126.10053    407.35308    117.90907    16.529299    16.529299    82.646494 
   50100    998.74709   -3992.0454    -4157.162    172.05429    632.29112   -569.05607    452.92781    16.529299    16.529299    82.646402 
   50200    1015.4189        -3991   -4158.8729   -203.53811   -289.35441   -516.72339    195.46346    16.529299    16.529299    82.646162 
   50300    998.26612   -3989.5866   -4154.6236     526.1158    1818.7411   -1162.3774    921.98375    16.529299    16.529299    82.645747 
   50400    1000.4942   -3988.1394   -4153.5448     737.2027     1204.691    959.93344    46.983659    16.529299    16.529299    82.645496 
   50500    1035.6672   -3986.7961   -4158.0164    207.62556    1154.1187    -82.88869   -448.35337    16.529299    16.529299    82.645402 
   50600    1033.3798   -3985.4904   -4156.3326     338.8972    -389.2515    564.76199     841.1811    16.529299    16.529299    82.645437 
   50700    1030.6539   -3984.1498   -4154.5414    947.86854    1460.8986    378.89245    1003.8146    16.529299    16.529299    82.646053 
   50800    1010.6287   -3982.7448   -4149.8257    1780.3823    1819.8325    1442.2019    2079.1124    16.529299    16.529299    82.647526 
   50900    1043.3846   -3981.2732   -4153.7694    1097.0497     1900.023    530.36809    860.75809    16.529299    16.529299    82.650008 
   51000    1029.9035   -3979.7694   -4150.0369    1644.7686    1868.1184    1895.2131    1170.9744    16.529299    16.529299    82.653009 
   51100    1048.0737   -3978.2475    -4151.519    1497.6861    2018.9756    1136.2376    1337.8452    16.529299    16.529299    82.656471 
   51200    1035.9676    -3976.732    -4148.002    1956.1759    3092.2144    1355.2243    1421.0889    16.529299    16.529299    82.660521 
   51300    1066.6726   -3975.1794   -4151.5257    1462.9149     2684.746    1472.4455    231.55336    16.529299    16.529299    82.665131 
   51400    1038.0929   -3973.6011   -4145.2225    2477.7913    2340.4603    2021.2193    3071.6943    16.529299    16.529299    82.670053 
   51500     1069.707   -3972.0652   -4148.9131    1943.7483    2320.1479     1698.199    1812.8981    16.529299    16.529299    82.675939 
   51600     1066.333   -3970.4713   -4146.7614    2209.9324    2476.5712    1666.7721     2486.454    16.529299    16.529299    82.682834 
   51700    1071.0963   -3968.8746   -4145.9522    2650.9996    2732.0186    3591.1818    1629.7985    16.529299    16.529299     82.69087 
   51800    1085.7863   -3967.2871   -4146.7933    2282.3881    4017.0437    1005.5567     1824.564    16.529299    16.529299    82.699813 
   51900    1090.9226   -3965.6834   -4146.0388    2476.4339    3684.7284    2552.8577    1191.7157    16.529299    16.529299    82.709717 
   52000    1075.2705   -3964.0542   -4141.8219    3216.9112    3635.0613    2879.6569    3136.0154    16.529299    16.529299     82.72038 
   52100     1116.249   -3962.4263   -4146.9687     2147.466    2502.9014    2038.7964    1900.7002    16.529299    16.529299    82.732253 
   52200    1073.1839   -3960.8219   -4138.2447    3449.2769    4140.2785    2344.8287    3862.7235    16.529299    16.529299    82.745289 
   52300    1108.3684   -3959.2036   -4142.4431    2932.6102    2901.8172    3264.8905    2631.1229    16.529299    16.529299    82.760065 
   52400    1070.7194   -3957.5829   -4134.5982    3968.8545    3337.2953    4120.1891     4449.079    16.529299    16.529299    82.776505 
   52500    1120.9429   -3955.9175    -4141.236    3155.4533    3484.1744    3819.2805     2162.905    16.529299    16.529299    82.794525 
   52600    1109.2878   -3954.2658   -4137.6574    3193.3057    1743.4832    4844.8945    2991.5392    16.529299    16.529299    82.813572 
   52700     1106.312   -3952.5909   -4135.4905    3748.4704    3525.0165    3953.1792    3767.2154    16.529299    16.529299    82.834005 
   52800    1125.1096   -3950.9354   -4136.9427     3507.863    2660.0543    3832.2469    4031.2878    16.529299    16.529299    82.855761 
   52900     1129.006   -3949.2339   -4135.8854    3702.3559    4286.2188    3386.2614    3434.5877    16.529299    16.529299    82.878892 
   53000    1143.6103   -3947.5316   -4136.5975    3362.6646    2826.8197    4082.9328    3178.2414    16.529299    16.529299     82.90336 
   53100     1115.293   -3945.8541   -4130.2385    4261.3438    3646.3852    4943.1722     4194.474    16.529299    16.529299    82.929024 
   53200    1150.0103   -3944.1874   -4134.3114    3795.1514    4795.4368    2958.4667    3631.5506    16.529299    16.529299    82.956094 
   53300    1161.4966   -3942.4541    -4134.477     3421.055    3410.7709    4737.6275    2114.7664    16.529299    16.529299     82.98463 
   53400     1153.619   -3940.7725   -4131.4931    3412.5069    4337.1924    3593.0595    2307.2687    16.529299    16.529299    83.014213 
   53500    1145.1511   -3939.0515   -4128.3722    3813.5957    4972.6729    4121.9629    2346.1512    16.529299    16.529299    83.044684 
   53600    1211.1314   -3937.3031   -4137.5318    2042.6001    2459.0528    2363.3109    1305.4366    16.529299    16.529299    83.075948 
   53700    1129.2473    -3935.592   -4122.2834    4080.8855    4770.4557    3865.7425    3606.4583    16.529299    16.529299    83.108131 
   53800    1162.5669   -3933.8709   -4126.0708    3472.4601     3539.353    3118.7653    3759.2621    16.529299    16.529299    83.141694 
   53900    1165.4264   -3932.1116   -4124.7843    3890.2094    4447.8154    3997.2832    3225.5295    16.529299    16.529299    83.176464 
   54000    1169.0888   -3930.3828   -4123.6609    3574.1295    4852.9528    2408.5893    3460.8462    16.529299    16.529299    83.212189 
   54100    1151.5916   -3928.6263   -4119.0117     4145.445    5296.6863     3386.655    3752.9938    16.529299    16.529299    83.248999 
   54200    1192.6896    -3926.856   -4124.0359    3302.5015     3608.631    2794.5296     3504.344    16.529299    16.529299    83.286894 
   54300    1153.8438   -3925.1119   -4115.8696    3921.2357    3864.4297    4133.9255     3765.352    16.529299    16.529299    83.325767 
   54400    1201.7735   -3923.3646   -4122.0463    3012.2651     2521.719    2479.2627    4035.8136    16.529299    16.529299    83.365633 
   54500    1211.7355   -3921.5746   -4121.9032    2934.1075     2826.112    3420.3611    2555.8493    16.529299    16.529299    83.406427 
   54600    1197.9541   -3919.8067   -4117.8569     2944.845    3018.7232    2918.3937     2897.418    16.529299    16.529299    83.447944 
   54700    1199.2819   -3918.0405   -4116.3103    3144.8775    3187.2164    2375.7652    3871.6509    16.529299    16.529299    83.490198 
[...]
  336300    958.35957    -3997.684   -4156.1235    -56.16032   -64.054192    375.10623     -479.533    16.508486    16.508486    82.869123 
  336400    991.81872   -3997.6976   -4161.6688   -787.69485    -278.2657   -862.16477   -1222.6541     16.50853     16.50853    82.824805 
  336500    1007.7783   -3997.7096   -4164.3192   -26.650237   -481.91915   -804.68261     1206.651    16.508497    16.508497    82.678704 
  336600    956.99491     -3997.69   -4155.9039    1745.0202    2021.8726    1623.1122    1590.0758    16.508459    16.508459    82.630843 
  336700    975.53812   -3997.6963   -4158.9759    692.79826    1966.3731    340.64528   -228.62357    16.508604    16.508604    82.686423 
  336800    979.21488   -3997.6975   -4159.5849   -79.578204   -331.93133   -155.40559    248.60231    16.508845    16.508845    82.754212 
  336900    1016.3922   -3997.6961   -4165.7299    -1218.016   -2063.3259   -151.45466   -1439.2674    16.509049    16.509049    82.813018 
  337000    999.35714   -3997.6959   -4162.9133   -1024.2827   -1475.6534    83.116369   -1680.3111    16.509094    16.509094    82.804646 
  337100    1000.6664   -3997.6951    -4163.129    -512.4533   -11.913375   -1242.6072    -282.8393    16.508951    16.508951    82.772014 
  337200    975.34346   -3997.6933   -4158.9407    381.56849     744.2687   -119.18814    519.62491    16.508712    16.508712    82.750557 
  337300    997.10088   -3997.6959   -4162.5404   -597.40685   -672.21124    -184.5915   -935.41782    16.508454    16.508454    82.755076 
  337400    968.35079   -3997.7039   -4157.7952    814.05165    1281.6776    1064.7365    95.740826    16.508264    16.508264    82.695871 
  337500    987.12798    -3997.703   -4160.8987    998.34774    2752.1358    355.76112    -112.8537    16.508243    16.508243     82.59928 
  337600    1008.6552   -3997.7094    -4164.464    872.95913    943.97167     301.7067     1373.199    16.508444    16.508444    82.583855 
  337700    977.97288   -3997.7338   -4159.4159    297.52481    1189.4286   -546.64556    249.79135    16.508792    16.508792    82.734714 
  337800    970.76306   -3997.7222   -4158.2123   -763.69983   -95.230119   -2273.3296    77.460277    16.509065    16.509065    82.884764 
  337900    990.90913   -3997.7139   -4161.5347   -1788.1795   -2711.2042   -1340.7989   -1312.5354    16.509012    16.509012    82.970345 
  338000    958.78652   -3997.7175   -4156.2277   -893.11904   -603.60641   -1511.7843   -563.96645    16.508611    16.508611    82.940986 
  338100    972.38114   -3997.7363    -4158.494   -384.45302   -268.88528    -145.1711   -739.30267    16.508007    16.508007    82.822069 
  338200    996.39286   -3997.7283   -4162.4556    198.04207   -1527.6425    258.35393    1863.4148    16.507301    16.507301    82.695876 
  338300    988.11322   -3997.7299   -4161.0885     351.8207   -270.19406    1425.8243   -100.16815    16.506628    16.506628    82.715029 
  338400    991.56885   -3997.7267   -4161.6566   -233.42363   -1838.8472    1262.6423   -124.06591    16.506134    16.506134    82.767043 
  338500    1000.5391   -3997.7256   -4163.1384   -980.16642    -991.7714    170.87868   -2119.6065    16.505713    16.505713    82.819183 
  338600    983.66122   -3997.7247   -4160.3472    58.304751    984.19845   -1996.1173    1186.8331    16.505292    16.505292    82.791178 
  338700    1001.3428   -3997.7281   -4163.2738   -444.17175   -683.73517    -68.52088    -580.2592    16.504847    16.504847    82.805105 
  338800     1005.021    -3997.729   -4163.8828   -355.79598    223.39744   -383.55618    -907.2292    16.504398    16.504398    82.795048 
  338900    989.50733   -3997.7276   -4161.3166   -176.21893   -346.93932   -641.27554    459.55807    16.503954    16.503954    82.787507 
  339000    982.61147   -3997.7276   -4160.1766    -240.9558   -1902.4181   -403.53402    1583.0848    16.503479    16.503479    82.811618 
  339100    995.90351   -3997.7463   -4162.3928   -1113.0977   -2235.9246   -426.86626   -676.50227    16.502909    16.502909      82.9246 
  339200    968.80681   -3997.7396   -4157.9064   -1163.0421   -1624.6603   -1678.2359   -186.23023    16.502135    16.502135     82.99644 
  339300    1030.1627    -3997.742   -4168.0523   -2969.3296   -3551.6339   -2634.8905   -2721.4644    16.501111    16.501111    83.043807 
  339400    978.19418   -3997.7645   -4159.4832   -754.28864   -1928.1564   -705.10224    370.39269    16.499836    16.499836    82.934502 
  339500     962.7654   -3997.7526   -4156.9205    685.91704    1090.0353   -973.74287    1941.4587    16.498497    16.498497    82.828278 
  339600    986.10676   -3997.7544   -4160.7812   -46.630106   -1324.7126    800.25656     384.5657    16.497255    16.497255    82.858887 
  339700    995.67978   -3997.7559   -4162.3654    -530.3685   -468.06243   -1127.2085    4.1654651    16.496139    16.496139    82.911597 
  339800    962.72429   -3997.7631   -4156.9243   -707.95326     -691.016   -1813.6099    380.76616    16.495022    16.495022    82.985551 
  339900    999.95777   -3997.7623    -4163.079   -1335.0231   -1412.9491   -2094.2343   -497.88597    16.493806    16.493806     83.00513 
  340000    976.16609   -3997.7701   -4159.1535   -62.224323    860.73387   -894.64567   -152.76116     16.49255     16.49255    82.932838 
  340100    1010.6535   -3997.7665   -4164.8515   -355.02956    241.52533    570.03399    -1876.648    16.491484    16.491484    82.868819 
  340200    993.29978   -3997.7641   -4161.9801     874.9536    255.21652    -256.3667     2626.011    16.490685    16.490685    82.789967 
  340300    1013.0576   -3997.7737   -4165.2561    87.307618   -345.81568    1738.4663   -1130.7277    16.490052    16.490052    82.871277 
  340400    1009.6672   -3997.7722   -4164.6941   -889.47872   -1000.2241   -1080.8124   -587.39968    16.489609    16.489609    82.945986 
  340500    987.62776   -3997.7681   -4161.0464   -480.25752   -577.47518   -252.64486   -610.65251     16.48923     16.48923    82.982743 
  340600    979.04045   -3997.7744    -4159.633    261.24015   -1185.2372     1458.752    510.20559    16.488879    16.488879    82.920715 
  340700    968.80733   -3997.7803   -4157.9472    431.52481    650.98386     139.5529    504.03766    16.488516    16.488516     82.93354 
  340800    980.36247   -3997.7716   -4159.8488   -402.90493   -369.11019   -27.506577   -812.09804    16.488138    16.488138    83.012227 
  340900    1013.1067   -3997.7736   -4165.2642    -1311.925   -1841.1584   -731.65562   -1362.9609    16.487759    16.487759    83.008054 
  341000    990.98629   -3997.7924    -4161.626     147.4204    809.55097    352.79941   -720.08919    16.487353    16.487353    82.921237 
  341100    979.94791   -3997.7796   -4159.7882    1385.9499    941.62881     960.3671    2255.8539    16.487092    16.487092    82.800471 
  341200    970.34251   -3997.7856   -4158.2062    1090.0723    1680.4122    497.62339    1092.1814    16.487044    16.487044    82.849198 
  341300    1010.1757   -3997.7969   -4164.8029   -728.87114   -741.35004   -452.20552   -993.05785    16.487152    16.487152    82.980426 
  341400    990.47276   -3997.7898   -4161.5385   -958.73418    -1325.318   -1692.7656    141.88106    16.487211    16.487211    83.061636 
  341500    971.12336   -3997.7846   -4158.3344   -549.79247   -1459.3593   -533.40604    343.38791    16.487069    16.487069    83.082406 
  341600    989.70995   -3997.7951   -4161.4176   -731.38745   -875.85462    -177.9544   -1140.3533    16.486775    16.486775    83.035169 
  341700    984.62581    -3997.792    -4160.574    295.85507    250.66222    1915.7406   -1278.8376    16.486457    16.486457    82.952001 
  341800    968.92644   -3997.7946   -4157.9812    1555.5299    1467.0209    2597.0409    602.52785    16.486313    16.486313    82.837282 
  341900    999.72503    -3997.792   -4163.0703    1930.1512     3507.435    232.04743    2050.9713    16.486502    16.486502    82.758192 
  342000    1012.0058   -3997.7991   -4165.1077      658.468    2356.3007    -173.6958   -207.20092    16.487073    16.487073    82.787514 
  342100    1011.0851    -3997.803   -4164.9594    311.88384    649.09451   -3.3657622    289.92277    16.487888    16.487888    82.862902 
  342200    966.48039   -3997.8077   -4157.5898     323.5624    585.63631    133.58775    251.46315    16.488694    16.488694     82.95789 
  342300    1004.5757   -3997.8007   -4163.8809   -1050.2471   -1784.9578   -318.06204   -1047.7216    16.489392    16.489392    83.012986 
  342400    978.78796   -3997.8159   -4159.6327    43.917447    638.20607   -13.455641   -492.99809    16.489887    16.489887    82.938553 
  342500     997.3686   -3997.8115   -4162.7002    499.48883    733.60969    242.32314    522.53367    16.490366    16.490366    82.829076 
  342600    995.52457   -3997.8062   -4162.3901    520.49999    1014.1783   -442.80737      990.129    16.490868    16.490868    82.788365 
  342700    997.59674   -3997.8124   -4162.7388    746.01317    1853.2629   -1745.5878    2130.3644    16.491454    16.491454      82.8179 
  342800    980.98685   -3997.8254   -4160.0058   -399.33188     924.3345   -1426.8939   -695.43623    16.492051    16.492051    82.966159 
  342900    971.93965    -3997.812   -4158.4966   -818.30471    -1438.741   -585.42775   -430.74537    16.492476    16.492476    83.035004 
  343000    985.22591   -3997.8137   -4160.6949   -603.05634    -872.9848   -1752.0713    815.88705    16.492628    16.492628    82.987378 
  343100    1016.1578   -3997.8172   -4165.8121   -1143.0765   -656.15469   -1512.4421   -1260.6328    16.492566    16.492566    82.946985 
  343200    977.86032   -3997.8151   -4159.4786    41.171056    224.43717   -121.13536    20.211362    16.492382    16.492382    82.893335 
  343300    969.94405   -3997.8164   -4158.1711    515.47598    55.858296   -419.37928    1909.9489    16.492165    16.492165    82.873875 
  343400    991.25316   -3997.8183    -4161.696   -554.21671   -224.69624   -148.30697   -1289.6469    16.491969    16.491969    82.950142 
  343500    1023.1722   -3997.8194    -4166.974   -1309.6793   -1489.6527    -1481.733   -957.65217    16.491759    16.491759    82.947912 
  343600    1005.2512   -3997.8196   -4164.0115   -291.59856   -1465.2733    771.14879   -180.67114     16.49147     16.49147    82.901068 
  343700    983.88095   -3997.8175   -4160.4764    697.07093    670.71564    490.23728    930.25986    16.491251    16.491251     82.86717 
  343800    1008.7607   -3997.8205   -4164.5926   -45.981551    791.98447   -243.47303   -686.45609    16.491165    16.491165    82.870007 
  343900    970.52029   -3997.8182   -4158.2682    1047.8058    279.57393    1430.3571    1433.4864    16.491238    16.491238    82.867012 
  344000    963.31123   -3997.8182   -4157.0764    183.96915    740.97424    1400.0551   -1589.1219    16.491441    16.491441    82.899821 
  344100     977.1683   -3997.8203   -4159.3694    663.73237   -935.84063    1325.1006    1601.9372    16.491729    16.491729    82.855718 
  344200    958.29609   -3997.8249    -4156.254    766.29273    808.98213    793.09341    696.80265    16.491973    16.491973    82.905424 
  344300    1002.0353   -3997.8224   -4163.4826   -906.55316    52.949316   -1408.5447   -1364.0641    16.492152    16.492152    82.986556 
  344400    992.68212   -3997.8226   -4161.9365   -1025.1061   -2205.9333    5.0225238   -874.40749    16.492173    16.492173    83.009297 
  344500    961.28557   -3997.8301   -4156.7534    120.11627    596.14024   -709.80009    474.00866     16.49201     16.49201    82.965273 
  344600    949.01826   -3997.8228   -4154.7181    1088.0237    1788.3109    484.91074    990.84932    16.491718    16.491718    82.909861 
  344700    989.00232   -3997.8247   -4161.3302   -100.57922    518.09769   -2322.1015    1502.2661    16.491486    16.491486    82.903433 
  344800    964.11885   -3997.8333    -4157.225    217.50617   -629.98379    182.59966    1099.9026    16.491197    16.491197    82.991928 
  344900      1008.68    -3997.832   -4164.5907   -2306.8211   -3202.7588   -842.10176   -2875.6028    16.490786    16.490786    83.099664 
  345000    994.50116   -3997.8543   -4162.2689   -1136.7386   -275.73683   -618.20037   -2516.2787    16.490182    16.490182    83.034597 
  345100    1005.8247   -3997.8697   -4164.1564    178.47625    -87.14197    704.25037   -81.679645    16.489635    16.489635    82.835899 
  345200    981.13323   -3997.8428   -4160.0474     1745.407    436.01628    2631.4083    2168.7964    16.489254    16.489254    82.752493 
  345300    981.85751   -3997.8775   -4160.2019    641.57026   -203.33166    754.04707    1373.9954     16.48908     16.48908    82.863823 
  345400     956.1153   -3997.8628   -4155.9313   -74.986372    -645.1594    1050.1533   -629.95297     16.48896     16.48896    83.041617 
  345500    981.03303   -3997.8597   -4160.0478   -1281.7383   -2038.0419   -92.047622   -1715.1254    16.488772    16.488772    83.077383 
  345600    954.57386   -3997.8618   -4155.6755    599.56454    -327.8955    1344.2878    782.30131    16.488453    16.488453    82.991007 
  345700    982.40937   -3997.8648   -4160.2803   -18.059943   -1681.7354    2226.8034    -599.2478    16.488144    16.488144    82.913384 
  345800    973.83397   -3997.8705   -4158.8684    1533.8926    1901.0811    2204.9679    495.62881    16.487982    16.487982    82.807333 
  345900    1004.2455   -3997.8659   -4163.8915    844.78914    270.79346    2313.1059    -49.53198    16.488133    16.488133    82.775984 
  346000    983.24568   -3997.8692    -4160.423    967.04573    1307.0145    1288.0091    306.11365    16.488559    16.488559     82.82368 
  346100    982.27136   -3997.8781   -4160.2709    291.35492     1034.789   -932.57615    771.85194    16.489161    16.489161    82.909313 
  346200    976.91357   -3997.8882   -4159.3952   -839.49498    840.06119   -1595.0725   -1763.4736    16.489669    16.489669    83.055001 
  346300    1006.5087   -3997.8786   -4164.2783   -2053.3387   -2122.2325   -779.22033   -3258.5632    16.489971    16.489971     83.08418 
  346400    980.25754   -3997.9283   -4159.9882    167.58266    1308.7562    613.91109   -1419.9193    16.490038    16.490038    82.887468 
  346500    963.93066    -3997.903   -4157.2636    2627.8527    2311.5337    3074.4856    2497.5389    16.490258    16.490258    82.669201 
  346600     1010.002   -3997.9024   -4164.8797    1264.4553    1028.3859    1776.1822    988.79783    16.490791    16.490791    82.650181 
  346700    962.53179   -3997.9322   -4157.0616    1404.8495    1540.4154    813.30458    1860.8284    16.491539    16.491539    82.774905 
  346800    1004.6935   -3997.9312   -4164.0308   -1003.3925   -2113.1109   -573.53483   -323.53176    16.492391    16.492391     82.96603 
  346900    1000.3229   -3997.9182   -4163.2953   -2156.3953   -1404.7127    -1413.328   -3651.1452       16.493       16.493    83.077063 
  347000    999.60771   -3997.9466   -4163.2054   -671.94555   -1521.4741    128.57715   -622.93971    16.493318    16.493318    82.955123 
  347100    998.80662   -3997.9483   -4163.0748    326.24527    784.21189   -185.93264    380.45655    16.493462    16.493462     82.77169 
  347200    1000.5421   -3997.9317    -4163.345    1430.1474    1443.0053    827.24548    2020.1915     16.49377     16.49377    82.678036 
  347300    944.71563   -3997.9456   -4154.1295    1983.7384    1619.4864    3431.4175    900.31127    16.494266    16.494266     82.74632 
  347400    996.17847   -3997.9631   -4162.6551   -520.50137   -795.59414   -262.32898   -503.58099     16.49495     16.49495    82.894123 
  347500    1000.5132   -3997.9442   -4163.3528   -1271.7376   -2266.2603    245.04224   -1793.9949    16.495462    16.495462    82.984911 
  347600    987.69617   -3997.9503   -4161.2399   -514.56818   -1040.3143   -995.47719    492.08691     16.49573     16.49573    82.914634 
  347700    990.13707   -3997.9459   -4161.6391    86.841676   -715.68022    628.48132    347.72393    16.495822    16.495822    82.854285 
  347800    1000.5396   -3997.9475   -4163.3604   -141.97448   -691.87223    835.74357   -569.79477    16.495866    16.495866    82.826151 
  347900    1004.5584   -3997.9475   -4164.0249    113.31459    885.01191   -1829.9395    1284.8714    16.495991    16.495991    82.815015 
  348000    986.90477   -3997.9561   -4161.1149    106.16756    1217.0435   -1133.9216    235.38078    16.496088    16.496088    82.903039 
  348100    976.98229   -3997.9551   -4159.4735   -1021.2873   -981.01977    -1555.749   -527.09324    16.496057    16.496057    83.001729 
  348200    991.49114   -3997.9529   -4161.8699   -1588.6037   -1434.6674   -2218.2076   -1112.9359    16.495831    16.495831    83.069603 
  348300    1017.9215   -3997.9848   -4166.2714   -1505.0549   -53.999697   -2600.0568    -1861.108    16.495354    16.495354    83.001852 
  348400     970.1246   -3997.9804   -4158.3651    1096.6898   -181.84669    504.82284    2967.0933    16.494764    16.494764    82.798222 
  348500    985.57088   -3997.9683   -4160.9066    898.83708    1831.0797   -623.93935    1489.3709     16.49432     16.49432    82.768785 
  348600    986.82918   -3997.9782   -4161.1244    337.76145    276.44361   -104.66046    841.50119    16.494104    16.494104    82.858299 
  348700    997.85941   -3997.9871   -4162.9569    -1195.739   -1153.4376   -2760.5407    326.76133    16.493933    16.493933    82.994252 
  348800    985.94839   -3997.9814   -4160.9821   -1726.0473   -2621.2424   -467.60968   -2089.2899    16.493437    16.493437    83.124256 
  348900    980.36317   -3997.9787    -4160.056   -1923.2575   -1898.3978   -2079.0775   -1792.2972    16.492632    16.492632    83.142781 
  349000    978.84178   -3998.0149   -4159.8406   -227.89061    1053.6679   -1700.9821   -36.357576     16.49153     16.49153    83.004605 
  349100    994.38333   -3998.0137   -4162.4089     608.0201    1764.6377    128.31546     -68.8929    16.490455    16.490455    82.825393 
  349200    979.96578   -3997.9993   -4160.0109    1873.9942    2092.7178    1171.0832    2358.1816    16.489702    16.489702    82.718954 
  349300    1000.0545   -3998.0236   -4163.3563    931.60326    790.38447    1139.0762    865.34907    16.489344    16.489344     82.80458 
  349400    951.05015   -3998.0294   -4155.2606    639.94467    1863.6989   -1557.1457    1613.2808    16.489209    16.489209    82.975593 
  349500    982.61787    -3998.041    -4160.491   -1532.8904    -2236.211   -2240.8042   -121.65596    16.489028    16.489028    83.165162 
  349600    950.79025   -3998.0224   -4155.2106   -1644.8627   -1527.0962   -1862.7751   -1544.7167    16.488442    16.488442    83.281679 
  349700    1006.9256   -3998.0513     -4164.52    -2504.433   -1453.4863   -3123.8459   -2935.9667    16.487454    16.487454    83.222948 
  349800    999.58849   -3998.0841   -4163.3398   -898.56933   -1298.1471   -1411.3387    13.777774    16.486267    16.486267    82.994314 
  349900    968.26813   -3998.0629   -4158.1406    1725.4246    770.19936    1836.2948    2569.7796    16.485137    16.485137    82.812484 
  350000    998.20172   -3998.0678   -4163.0942    753.58798    256.17187   -113.62186    2118.2139    16.484343    16.484343    82.830145 
Loop time of 951.723 on 1 procs for 200000 steps with 1280 atoms

Pair  time (%) = 845.394 (88.8277)
Neigh time (%) = 73.4114 (7.71353)
Comm  time (%) = 12.1021 (1.2716)
Outpt time (%) = 0.438504 (0.0460747)
Other time (%) = 20.377 (2.14107)

Nlocal:    1280 ave 1280 max 1280 min
Histogram: 1 0 0 0 0 0 0 0 0 0
Nghost:    3519 ave 3519 max 3519 min
Histogram: 1 0 0 0 0 0 0 0 0 0
Neighs:    47157 ave 47157 max 47157 min
Histogram: 1 0 0 0 0 0 0 0 0 0

Total # of neighbors = 47157
Ave neighs/atom = 36.8414
Neighbor list builds = 20000
Dangerous builds = 0
unfix		4
