LAMMPS (13 Jan 2014)
dimension       3
boundary        p p p
units           metal

atom_style	atomic
neighbor	0.3 bin
neigh_modify	every 10 delay 0 check no

# Number of steps for the equilibration steps
variable        eqsteps equal 50000

# Number of steps to run our NPH simulation
variable        simsteps equal 200000

# Our trial melting temperature
variable	T equal 1200.0
variable	T2 equal 2*${T}
variable	T2 equal 2*1200

# Some high temperature to melt the crystal
variable	Tmelt equal 2000.0

#System size
variable	nx equal 4
variable	ny equal 4
variable	nz equal 20
variable	nzhalf equal ${nz}*0.5
variable	nzhalf equal 20*0.5
variable	a equal 4.050
variable	length equal ${nz}*${a}
variable	length equal 20*${a}
variable	length equal 20*4.05

lattice		fcc ${a}
lattice		fcc 4.05
Lattice spacing in x,y,z = 4.05 4.05 4.05

region         box block 0 ${nx} 0 ${ny} 0 ${nz}
region         box block 0 4 0 ${ny} 0 ${nz}
region         box block 0 4 0 4 0 ${nz}
region         box block 0 4 0 4 0 20
create_box     1 box
Created orthogonal box = (0 0 0) to (16.2 16.2 81)
  1 by 1 by 1 MPI processor grid
create_atoms   1 box
Created 1280 atoms

mass		1 26.9815

pair_style	eam/alloy
pair_coeff	* * Al_potential.alloy Al

velocity	all create ${T2} 1337
velocity	all create 2400 1337

# Create a dump file. This can be visualized with
# e.g. OVITO (http://www.ovito.org/)
dump		id all atom 1000 atomsdump

# 1 fs timestep
timestep	0.001
thermo_style	custom step temp etotal pe press pxx pyy pzz lx ly lz

# output every 100th timestep
thermo		100

# Equilibration the whole system to the trial melting temperature
fix		1 all npt temp ${T} ${T} 1 iso 0 0 3 drag 1.0
fix		1 all npt temp 1200 ${T} 1 iso 0 0 3 drag 1.0
fix		1 all npt temp 1200 1200 1 iso 0 0 3 drag 1.0
run		${eqsteps}
run		50000
Memory usage per processor = 3.13549 Mbytes
Step Temp TotEng PotEng Press Pxx Pyy Pzz Lx Ly Lz 
       0         2400   -3951.5833   -4348.3603    15872.833    15321.475    15719.054    16577.971         16.2         16.2           81 
     100    1114.0959   -3955.9024   -4140.0889    40912.362    42331.659    41521.241    38884.186    16.236855    16.236855    81.184277 
     200    1134.8252   -3963.9843   -4151.5978    25636.898    25923.486    25822.522    25164.688    16.339824    16.339824    81.699118 
     300    1067.8324   -3969.1023   -4145.6404    10698.728    11045.448    10333.913    10716.821     16.46203     16.46203    82.310148 
     400    1078.1308   -3969.6734    -4147.914   -1459.6205   -1737.4783   -442.78528   -2198.5979    16.559736    16.559736    82.798678 
     500    1041.9378   -3968.1425   -4140.3995   -7192.9127    -8380.951   -7472.9348   -5724.8522    16.620289    16.620289    83.101445 
     600    1010.9131   -3966.3663   -4133.4942    -9317.487   -9283.4277   -8636.0326   -10033.001    16.649046    16.649046    83.245228 
     700    1032.1371   -3964.9549   -4135.5917   -10031.126   -10990.838   -9560.8211   -9541.7198    16.653443    16.653443    83.267217 
     800    1037.0169   -3963.8695    -4135.313   -8375.9407   -8156.8065   -8570.3326   -8400.6829    16.639323    16.639323    83.196617 
     900    1063.4444   -3962.8857   -4138.6983   -5668.3516   -6359.8457   -6646.7385   -3998.4707    16.612584    16.612584    83.062919 
    1000    1068.1708   -3961.7943   -4138.3883   -2165.7804   -2321.2639   -1986.5692   -2189.5079    16.580409    16.580409    82.902047 
    1100    1106.0998   -3960.4946   -4143.3591    934.16268   -268.57461    1899.8803    1171.1823    16.549557    16.549557    82.747786 
    1200    1095.6839   -3959.1227   -4140.2652    4272.2279    2823.0542    4910.5197    5083.1096    16.525733    16.525733    82.628667 
    1300    1096.0323    -3957.849   -4139.0491    5923.1137     5591.382    5640.9745    6536.9847     16.51282     16.51282    82.564101 
    1400    1109.3084   -3956.8106   -4140.2056    6509.7731    6195.0792    5961.0601    7373.1799     16.51212     16.51212    82.560602 
    1500    1125.1059   -3956.0124   -4142.0191    4750.5942    3835.7252    4047.6066    6368.4508    16.522809    16.522809    82.614044 
    1600    1117.1839   -3955.3023   -4139.9993    2941.7266    1111.3734    1656.1132    6057.6931    16.541716    16.541716    82.708581 
    1700    1106.6875   -3954.4771   -4137.4388    626.39895   -739.11644    1068.0267    1550.2866     16.56433     16.56433     82.82165 
    1800    1114.6677   -3953.4825   -4137.7635   -1812.1307      -1125.1   -3231.7966   -1079.4956    16.585315    16.585315    82.926573 
    1900    1070.8803   -3952.4493   -4129.4912    -2532.037   -1047.5431   -4156.6221   -2391.9458    16.600953    16.600953    83.004764 
    2000    1108.8922    -3951.365   -4134.6911   -4025.2904   -3004.3741   -3948.7492   -5122.7478    16.609569    16.609569    83.047846 
    2100    1117.3191   -3950.3303   -4135.0496   -4347.8715   -4175.6962   -5596.1985   -3271.7197    16.610286    16.610286    83.051432 
    2200    1094.3373   -3949.3413   -4130.2612   -2595.0189   -2965.6299   -2851.9487    -1967.478    16.604095    16.604095    83.020476 
    2300    1126.4838   -3948.3796   -4134.6141    -1976.541    -1876.904   -2390.9089   -1661.8103    16.593115    16.593115    82.965573 
    2400     1130.753   -3947.4041   -4134.3444   -603.34146   -272.21827   -1537.8653  0.059134971    16.580058    16.580058     82.90029 
    2500    1091.9397   -3946.4192   -4126.9428    2007.7726    2595.5092    2591.6376    836.17104    16.567854    16.567854    82.839269 
    2600    1117.2009   -3945.4135   -4130.1133    2117.1804    1621.0921    1722.9456    3007.5035      16.5597      16.5597    82.798502 
    2700    1116.5438   -3944.4744   -4129.0656    2820.1892    2184.7946    3047.0019    3228.7711    16.556648    16.556648    82.783239 
    2800    1091.9929   -3943.5957    -4124.128    3555.6601    3259.2458    4178.0058    3229.7287    16.558996    16.558996    82.794982 
    2900    1125.7521   -3942.7752   -4128.8887    2194.7673    2217.3734    2893.1096     1473.819    16.566504    16.566504    82.832518 
    3000    1132.2089   -3941.9488   -4129.1298    922.06728     1819.307   -474.22558    1421.1205    16.577303    16.577303    82.886515 
    3100    1117.6308   -3941.1081    -4125.879   -28.737838   -663.42169      -672.85    1250.0582    16.589211    16.589211    82.946057 
    3200    1109.3594   -3940.2064   -4123.6099   -713.46006    -697.5578    178.76005   -1621.5824    16.599742    16.599742     82.99871 
    3300    1109.4667   -3939.3278    -4122.749   -2053.0027     -1280.05    -3065.898   -1813.0602    16.607222    16.607222    83.036109 
    3400    1104.2761   -3938.4033   -4120.9663   -1702.7693   -1874.8139   -2124.2229   -1109.2711    16.610574    16.610574     83.05287 
    3500    1114.9162   -3937.4874   -4121.8095   -1784.5142   -788.08255   -3164.8376   -1400.6225    16.610008    16.610008    83.050038 
    3600    1114.9668   -3936.5605   -4120.8909   -984.04968   -3623.4395    668.71777    2.5727385    16.606228    16.606228    83.031139 
    3700    1145.8266   -3935.6714   -4125.1037   -790.20715   -898.04814   -18.383075   -1454.1902    16.600039    16.600039    83.000196 
    3800    1163.4906   -3934.8181   -4127.1707   -467.72172   -1325.5925     916.4986   -994.07122    16.592987    16.592987    82.964937 
    3900    1142.4262   -3934.0224   -4122.8926     1004.667    668.34637    2409.9059   -64.251276    16.586363    16.586363    82.931817 
    4000    1160.9208   -3933.2427   -4125.1705    1128.0152    -160.7847    2788.0711    756.75926    16.582638    16.582638    82.913188 
    4100      1160.05   -3932.4773   -4124.2611    1437.3075    3422.8662   -145.06648    1034.1227     16.58231     16.58231    82.911548 
    4200    1143.4883   -3931.7891   -4120.8349    1893.6437    1925.5306    2730.1661    1025.2343    16.584638    16.584638     82.92319 
    4300    1186.8045   -3931.1327   -4127.3396    195.56478    473.25393    309.68228   -196.24186    16.589728    16.589728    82.948641 
    4400    1124.0496   -3930.5035   -4116.3355     956.7475    2452.0104    -270.3086    688.54071    16.596165    16.596165    82.980825 
    4500    1154.6294   -3929.8465   -4120.7341    -623.3859   -1125.3882   -1226.0174    481.24791    16.603029    16.603029    83.015145 
    4600    1168.9378   -3929.1756   -4122.4288   -1243.4578    1190.0922   -2055.1333   -2865.3323    16.608692    16.608692    83.043458 
    4700    1180.0981   -3928.5009   -4123.5991   -1669.0437   -3117.9252   -62.242853   -1826.9632    16.612379    16.612379    83.061897 
    4800    1125.6276   -3927.8492   -4113.9421   -587.27574    623.94691   -28.413943   -2357.3602    16.613283    16.613283    83.066416 
    4900    1137.4339   -3927.1865   -4115.2313   -504.58068    830.78833    -759.0349   -1585.4955    16.611785    16.611785    83.058924 
    5000    1154.5359   -3926.5489    -4117.421   -714.16649   -969.85533    1193.9418    -2366.586    16.608184    16.608184    83.040921 
    5100    1152.1349   -3925.9267   -4116.4019    186.50029    850.91404    1922.8281   -2214.2413    16.603411    16.603411    83.017057 
    5200    1173.5441   -3925.2926   -4119.3073    757.25399    2181.7997   -309.08098    399.04324    16.599378    16.599378    82.996888 
    5300    1158.0756   -3924.6636    -4116.121    1289.6152    1137.8489    681.55246    2049.4442    16.597188    16.597188     82.98594 
    5400    1177.9303    -3924.073   -4118.8129    735.00555    3897.8276    3.7087994   -1696.5198    16.596765    16.596765    82.983827 
    5500    1141.1102   -3923.5523   -4112.2048    1657.9026    1585.6389    2468.6411    919.42784    16.597673    16.597673    82.988363 
    5600    1208.1594   -3923.0326     -4122.77   -349.94419   -151.62898   -228.90872   -669.29487    16.600354    16.600354    83.001768 
    5700    1140.7928    -3922.534   -4111.1341     1089.138    923.66429   -6.4469535    2350.1965    16.603866    16.603866    83.019328 
    5800    1169.8578   -3922.0262   -4115.4315    -45.43514    515.27404   -1385.6289    734.04947    16.608162    16.608162    83.040811 
    5900    1177.9165   -3921.5107   -4116.2483   -333.09633    289.18184   -1888.8582    600.38733    16.612328    16.612328    83.061639 
    6000    1161.9362   -3920.9756   -4113.0712     -123.621   -43.016823    121.66415   -449.51033     16.61615     16.61615     83.08075 
    6100    1176.0356   -3920.4562   -4114.8828   -972.25156   -2040.5038   -1768.3437     892.0929     16.61887     16.61887    83.094349 
    6200    1153.9082   -3919.9443   -4110.7127   -166.04359    737.82857   -1096.0007   -139.95867    16.620149    16.620149    83.100747 
    6300    1160.4974   -3919.4271   -4111.2849   -494.46339    -1060.868   -614.22416    191.70201    16.620622    16.620622    83.103111 
    6400    1185.4095   -3918.8934   -4114.8697   -771.74116   -2223.8538   -729.51647    638.14683    16.620023    16.620023    83.100117 
    6500    1147.2534   -3918.3911   -4108.0593    540.70266   -110.12304    213.77181    1518.4592    16.618459    16.618459    83.092296 
    6600    1189.9889   -3917.8746    -4114.608   -633.46887   -558.93038   -1241.7002   -99.776001    16.617053    16.617053    83.085263 
    6700    1178.2213   -3917.3936   -4112.1815    471.36275    1288.4279   -629.95967    755.62001    16.615308    16.615308    83.076539 
    6800    1194.3017   -3916.9233   -4114.3697    2.0431674    88.908473    260.07375   -342.85272    16.614294    16.614294    83.071468 
    6900    1165.0318    -3916.461   -4109.0684    770.72192      2618.36   -815.06785    508.87362    16.614243    16.614243    83.071215 
    7000    1194.8057   -3915.9977   -4113.5274   -430.72643   -574.67867    1014.5587   -1732.0594    16.615459    16.615459    83.077296 
    7100    1161.2368   -3915.5417   -4107.5217    483.93897    2657.9382   -1336.6008    130.47957    16.616851    16.616851    83.084257 
    7200    1198.6251    -3915.072   -4113.2332   -439.12535   -914.75901   -803.07079    400.45373    16.618773    16.618773    83.093866 
    7300    1183.9043   -3914.5701   -4110.2975   -485.28449   -1391.9584   -1625.1129    1561.2178    16.621063    16.621063    83.105314 
    7400    1147.0167   -3914.0697   -4103.6988    891.30403   -620.66812    211.85095    3082.7293    16.622964    16.622964     83.11482 
    7500    1226.3623   -3913.5935   -4116.3403   -1691.7122   -3518.3163   -2034.0096    477.18916    16.624284    16.624284    83.121422 
    7600    1158.0395    -3913.178   -4104.6295    359.21726   -24.828633   -307.19454     1409.675    16.623934    16.623934     83.11967 
    7700    1216.2982     -3912.73    -4113.813   -1079.0189   -1023.8089   -280.80817   -1932.4397    16.623908    16.623908    83.119541 
    7800    1180.7994   -3912.3165   -4107.5306   -67.654906    195.83824   -1438.5034    1039.7005    16.623013    16.623013    83.115065 
    7900    1192.9114   -3911.9157   -4109.1322   -48.890435   -171.69511    316.05703   -291.03323    16.622044    16.622044    83.110221 
    8000    1180.9455   -3911.5313   -4106.7696    488.77906   -545.73017    306.98977    1705.0776    16.621312    16.621312    83.106561 
    8100    1205.1575   -3911.1389   -4110.3801    332.61658   -1281.2963     590.0408    1689.1053    16.621555    16.621555    83.107774 
    8200    1175.1033   -3910.7677   -4105.0402    920.86715    1627.3073   -1073.1253    2208.4194    16.622589    16.622589    83.112943 
    8300    1219.6714   -3910.4468   -4112.0874   -481.35519    72.713535   -1900.2914    383.51228    16.624031    16.624031    83.120153 
    8400    1200.7365   -3910.1553   -4108.6656   -466.33407    649.05888   -697.44842   -1350.6127    16.625657    16.625657    83.128286 
    8500    1202.1172   -3909.8747   -4108.6132   -416.45567   -543.92739   -1379.3275    673.88787    16.627219    16.627219    83.136095 
    8600    1192.9021   -3909.6275   -4106.8426   -242.01411   -993.09328   -538.85014     805.9011    16.627843    16.627843    83.139217 
    8700    1182.4359   -3909.3707   -4104.8554    366.11464    298.29105   -265.57678    1065.6297    16.628315    16.628315    83.141575 
    8800    1202.1956   -3909.1045    -4107.856   -416.52954   -620.00988     457.7509   -1087.3296    16.629071    16.629071    83.145356 
    8900    1173.1601   -3908.8706   -4102.8218     403.5928    1209.7458    179.75919   -178.72657    16.629074    16.629074    83.145371 
    9000    1193.8091   -3908.6306   -4105.9956    92.439289   -485.83969   -615.60298    1378.7605     16.62919     16.62919     83.14595 
    9100    1176.2291   -3908.4246   -4102.8832    520.50333    2523.3851   -890.14314   -71.731984    16.629254    16.629254    83.146272 
    9200    1170.8654   -3908.2251    -4101.797   -2.8580693    968.30711   -2406.7833    1429.9019     16.62939     16.62939     83.14695 
    9300    1180.4978   -3908.0477    -4103.212    405.67234    3100.1323   -2082.9977    199.88237     16.62903     16.62903    83.145152 
    9400     1183.337    -3907.896   -4103.5297     349.3222    -845.1892    1698.3245    194.83131    16.628414    16.628414     83.14207 
    9500    1209.5183   -3907.7396   -4107.7017   -348.30085    1501.2096   -207.46604   -2338.6461    16.628139    16.628139    83.140694 
    9600    1198.9359    -3907.596   -4105.8086   -8.3737614   -363.96168    194.84564    143.99475    16.627817    16.627817    83.139085 
    9700    1234.4093   -3907.4868    -4111.564   -859.21053   -1410.0758    698.25599   -1865.8117    16.626953    16.626953    83.134767 
    9800    1209.0105   -3907.4115   -4107.2896    277.68692    1261.0722   -809.80512    381.79369    16.625719    16.625719    83.128597 
    9900    1185.2159   -3907.3592   -4103.3035      854.275   -1351.1909    1397.0457    2516.9702    16.625334    16.625334    83.126668 
   10000    1208.8309   -3907.3436    -4107.192    188.26686    658.64527   -368.56073    274.71603    16.625525    16.625525    83.127626 
   10100    1214.9749   -3907.3431   -4108.2073    46.143947    893.28305   -1223.5741     468.7229    16.626233    16.626233    83.131166 
   10200    1187.0063   -3907.3677    -4103.608    832.85043    1635.1354   -1004.6092    1868.0251    16.627057    16.627057    83.135283 
   10300     1198.801   -3907.3864   -4105.5767      9.74566    1170.4829    316.14023   -1457.3861    16.628513    16.628513    83.142565 
   10400    1246.6853   -3907.3804   -4113.4871   -1080.5195   -826.60789     311.6018   -2726.5525    16.630449    16.630449    83.152246 
   10500    1229.5192   -3907.4397   -4110.7084   -438.65484   -358.19707   -978.10167    20.334236    16.631434    16.631434    83.157172 
   10600    1182.7485    -3907.538   -4103.0743    271.57843    2432.3933    -1175.745   -441.91306    16.631802    16.631802    83.159012 
   10700    1212.2369   -3907.6371   -4108.0486   -858.37219   -1226.1325   -343.38669   -1005.5973    16.631636    16.631636    83.158178 
   10800    1231.4711   -3907.7743   -4111.3656   -1280.0027   -741.27552   -1906.3592   -1192.3734    16.630122    16.630122    83.150612 
   10900    1208.5612   -3907.9511   -4107.7549   -467.88239    928.57076   -345.51231   -1986.7056     16.62695     16.62695    83.134749 
   11000    1177.9487   -3908.1058   -4102.8486    789.40007    1494.1814   -833.85427    1707.8731    16.623689    16.623689    83.118443 
   11100    1227.8727    -3908.215   -4111.2115   -101.58404    672.96914   -3285.7283     2308.007    16.621551    16.621551    83.107754 
   11200    1211.0003   -3908.3443   -4108.5514    316.43259    520.26342    270.75236    158.28198    16.619865    16.619865    83.099324 
   11300     1210.213   -3908.4934   -4108.5703    593.95018   -192.62051    666.36201     1308.109     16.61901     16.61901    83.095052 
   11400    1213.0171   -3908.6572   -4109.1977    491.97899     700.0896    -1125.578    1901.4254    16.619473    16.619473    83.097365 
   11500    1195.8252      -3908.8   -4106.4983    981.99134    1980.2681   -1717.1293    2682.8352    16.621187    16.621187    83.105937 
   11600    1233.6032   -3908.9383   -4112.8822   -657.16862   -595.36273   -1627.5881    251.44493     16.62398     16.62398    83.119901 
   11700    1199.7003   -3909.0947   -4107.4337   -98.200914    62.284464   -1309.4894    952.60219    16.626811    16.626811    83.134054 
   11800    1203.0103   -3909.2244   -4108.1105    -292.1559   -1599.3114   -56.844681    779.68836     16.62947     16.62947    83.147349 
   11900    1213.7368   -3909.3024   -4109.9619   -974.24893   -738.96295   -2734.7335    550.94961    16.631832    16.631832    83.159161 
   12000    1187.5426   -3909.3835   -4105.7125    -808.5874   -1396.8592   -1326.5059    297.60293    16.632684    16.632684    83.163421 
   12100    1221.8179   -3909.4454   -4111.4408   -1346.5145   -1740.9128   -974.68492   -1323.9457    16.632077    16.632077    83.160386 
   12200    1161.8369   -3909.5435   -4101.6227    317.94696   -903.56605    695.00596     1162.401    16.629602    16.629602    83.148012 
   12300    1209.2771    -3909.615   -4109.5372   -296.27273    166.27782   -1620.4161    565.32011    16.626527    16.626527    83.132635 
   12400    1207.9043   -3909.6974   -4109.3927    95.307404   -841.63185    70.186752    1057.3673     16.62279     16.62279    83.113952 
   12500    1199.4973   -3909.7634   -4108.0688     731.3282    1029.5565    463.72873    700.69941    16.619764    16.619764     83.09882 
   12600    1200.3847   -3909.8166   -4108.2687    512.09757    1299.4656   -923.07606    1159.9032    16.617981    16.617981    83.089903 
   12700    1177.0967   -3909.8501   -4104.4521     1304.436   -469.63816    2389.9148    1993.0313    16.617748    16.617748    83.088739 
   12800     1233.599   -3909.9049   -4113.8481    -88.52407   -2116.9437    516.80858    1334.5629    16.618492    16.618492    83.092462 
   12900     1191.211   -3910.0164   -4106.9518    280.51881    -1551.047    938.07104    1454.5324    16.619641    16.619641    83.098204 
   13000    1184.6601   -3910.0632   -4105.9156    369.42295   -810.18641    180.78562    1737.6696    16.622164    16.622164    83.110819 
   13100    1209.6146   -3910.0685   -4110.0464   -737.77543   -1721.1855    1270.4846   -1762.6254     16.62516     16.62516    83.125798 
   13200    1197.3377   -3910.0553   -4108.0036    -551.4945    674.94764   -845.05539   -1484.3757    16.627578    16.627578    83.137891 
   13300    1196.9466    -3910.004   -4107.8877   -623.89016   -2268.1181    339.20612    57.241555    16.629547    16.629547    83.147734 
   13400    1179.6243   -3909.9244   -4104.9442   -318.59731   -861.24875   -514.42142    419.87824    16.630891    16.630891    83.154456 
   13500     1180.939   -3909.8488   -4105.0861   -533.54728    733.03547   -1074.1439   -1259.5334     16.63094     16.63094    83.154701 
   13600     1212.157   -3909.7641   -4110.1624   -951.80211   -788.54275   -455.70608   -1611.1575    16.629516    16.629516    83.147582 
   13700    1211.2899   -3909.6793   -4109.9342   -1112.4075   -1645.3818   -70.314243   -1621.5265    16.626897    16.626897    83.134483 
   13800    1159.8211   -3909.5859   -4101.3318    1038.8128   -404.42044    942.27633    2578.5825    16.623438    16.623438    83.117192 
   13900    1215.4012   -3909.4403   -4110.3749    85.208633     570.9862     -249.113   -66.247292    16.620992    16.620992    83.104961 
   14000    1220.5726   -3909.3402   -4111.1298    96.635504    433.41252    730.39257   -873.89859     16.61898     16.61898    83.094899 
   14100    1228.8698    -3909.232   -4112.3933   -473.60799    197.52307   -2382.9197    764.57267    16.618356    16.618356    83.091778 
   14200    1190.8191   -3909.1547   -4106.0253    823.42145    865.50462    1101.6219     503.1378    16.618698    16.618698    83.093492 
   14300    1194.1238   -3909.0845   -4106.5015     868.6846    2411.6556     233.7222   -39.323977    16.620415    16.620415    83.102074 
   14400    1178.6703   -3909.0131   -4103.8753     798.5253   -271.93752    1327.4665    1340.0469    16.623406    16.623406    83.117031 
   14500    1186.5486   -3908.9254     -4105.09   -65.577383    2089.6344   -1836.5869   -449.77958    16.627594    16.627594    83.137971 
   14600    1186.6205   -3908.8152   -4104.9917   -557.68564   -354.30927    435.52144   -1754.2691    16.631517    16.631517    83.157584 
   14700    1271.1642   -3908.7392   -4118.8928   -2868.4072   -2100.8213   -2727.8444   -3776.5558    16.633697    16.633697    83.168486 
   14800    1197.4635   -3908.7174   -4106.6866   -1053.2833   -1905.4502    -1395.851    141.45139    16.633057    16.633057    83.165284 
   14900    1202.4087   -3908.6453    -4107.432   -533.73955   -15.377651    536.13972   -2121.9807    16.631485    16.631485    83.157423 
   15000    1191.7656    -3908.568   -4105.5952   -51.288799    321.69063   -320.10152   -155.45551    16.629524    16.629524    83.147621 
   15100    1184.9959   -3908.4622   -4104.3701    89.716913    1497.8739   -811.86051   -416.86264    16.627674    16.627674    83.138372 
   15200     1218.219   -3908.3504   -4109.7509   -647.71085   -248.37509   -1263.9749   -430.78258     16.62578     16.62578    83.128901 
   15300    1205.6667    -3908.251   -4107.5763    245.23361    822.33979    226.02989   -312.66884    16.624052    16.624052    83.120262 
   15400    1206.5401   -3908.1308   -4107.6005    769.51405    -277.2288     1681.484    904.28699    16.623715    16.623715    83.118577 
   15500    1175.1051    -3907.987   -4102.2598    1035.9866    1399.4226    54.090543    1654.4465    16.625449    16.625449    83.127247 
   15600    1198.1502   -3907.8625   -4105.9452   -177.68317    -1303.576    2430.4216   -1659.8951    16.627867    16.627867    83.139333 
   15700    1219.0234   -3907.7894   -4109.3229   -764.06095   -1708.3063    2028.7736   -2612.6502    16.629483    16.629483    83.147414 
   15800    1176.5848   -3907.7762   -4102.2936    486.97312   -1410.3105    329.64115    2541.5887    16.629812    16.629812     83.14906 
   15900    1214.2599   -3907.7635   -4108.5095   -660.41974   -188.31787    222.31204   -2015.2534    16.629907    16.629907    83.149533 
   16000    1182.2673   -3907.7388   -4103.1956    601.26701    2263.9872   -8.6823138   -451.50383    16.629432    16.629432    83.147162 
   16100    1195.9219   -3907.6834   -4105.3977   -208.97924    154.60973    30.884547   -812.43201    16.629237    16.629237    83.146186 
   16200    1203.1426   -3907.6368   -4106.5449   -174.63189    902.25373   -1091.4255   -334.72387    16.628822    16.628822     83.14411 
   16300    1169.3649   -3907.6474   -4100.9711    649.31279    2909.2942   -854.61951   -106.73633    16.627516    16.627516    83.137578 
   16400    1235.5342   -3907.6529   -4111.9161   -787.07884    1756.9506    -2009.316   -2108.8711    16.626358    16.626358     83.13179 
   16500    1241.8112   -3907.6999   -4113.0007   -1114.4454   -1419.1512   -855.36042   -1068.8247     16.62497     16.62497    83.124848 
   16600    1177.1651   -3907.7796    -4102.393     1239.487     986.5755    1386.1609    1345.7245    16.623199    16.623199    83.115995 
   16700    1211.6776   -3907.8498   -4108.1688     503.5247    1034.7536   -911.45346     1387.274     16.62272     16.62272    83.113598 
   16800    1204.2561   -3907.9302   -4107.0223    524.01813    -315.6707    1178.2501    709.47496    16.623242    16.623242    83.116209 
   16900    1192.9615   -3908.0256   -4105.2504    530.91019   -1479.5304    -352.5949    3424.8559    16.624275    16.624275    83.121374 
   17000    1200.4428   -3908.1236   -4106.5853    397.33962    624.98311    1167.7511   -600.71531    16.625785    16.625785    83.128927 
   17100    1204.4968   -3908.1968   -4107.3287   -498.68106    111.08719    329.80327   -1936.9336    16.627886    16.627886    83.139431 
   17200    1234.0693   -3908.2387   -4112.2596   -1064.8844   -960.97494   -1843.0069   -390.67119     16.62966     16.62966    83.148299 
   17300    1222.3153    -3908.308   -4110.3857   -886.16716   -1568.0398   -1027.8221   -62.639651    16.630131    16.630131    83.150657 
   17400    1181.1558   -3908.3682   -4103.6413   -3.6849482    612.44671   -483.97274   -139.52882    16.629614    16.629614    83.148072 
   17500    1202.9951    -3908.409   -4107.2926   -432.03501    377.87993   -1100.4222   -573.56273    16.628459    16.628459    83.142294 
   17600    1192.1253   -3908.4213   -4105.5079    79.138688    113.96707    640.94333   -517.49433     16.62715     16.62715    83.135751 
   17700    1202.4968   -3908.3645   -4107.1657   -87.756765   -966.16823   -229.52211    932.42004    16.626681    16.626681    83.133404 
   17800    1206.5085   -3908.3094   -4107.7739   -268.88539   -86.609393   -628.09402   -91.952746    16.626392    16.626392    83.131961 
   17900    1219.9081    -3908.272   -4109.9517   -428.51708    138.13058   -1157.2366   -266.44522    16.626081    16.626081    83.130403 
   18000     1178.986   -3908.2433   -4103.1577    751.48551   -63.695886    1906.4569    411.69554    16.625661    16.625661    83.128305 
   18100    1199.3499   -3908.1953   -4106.4763     29.37833   -68.725472   -633.25811    790.11858     16.62585     16.62585    83.129252 
   18200     1235.735   -3908.1237     -4112.42   -831.91034   -2280.8479   -1063.4537     848.5706    16.626644    16.626644     83.13322 
   18300     1205.778   -3908.0579   -4107.4016   -468.98557   -174.35182    312.63886   -1545.2438    16.627372    16.627372     83.13686 
   18400    1154.0095    -3907.998   -4098.7832    890.30758   -910.35005    224.30039    3356.9724    16.627861    16.627861    83.139305 
   18500    1201.8272   -3907.9141   -4106.6047   -232.24902   -1007.2718    -170.5102    481.03491    16.628437    16.628437    83.142186 
   18600    1187.4285   -3907.8457   -4104.1558    92.953013    -250.9856   -514.66484    1044.5095    16.628588    16.628588    83.142939 
   18700    1199.6131   -3907.7562   -4106.0807   -45.275255    309.44871   -756.24335    310.96888    16.628861    16.628861    83.144304 
   18800    1209.6412   -3907.6902   -4107.6726   -110.49807   -1184.4042     1131.139   -278.22906    16.628718    16.628718     83.14359 
   18900    1219.0065   -3907.6419   -4109.1726   -356.79933    420.63199   -1802.7006    311.67063    16.628398    16.628398    83.141989 
   19000    1199.3249   -3907.6247   -4105.9015    145.47406   -1926.4045    96.238569    2266.5881    16.627894    16.627894    83.139469 
   19100    1213.6663   -3907.6177   -4108.2655   -300.62622   -2654.7851    194.16383    1558.7426    16.627609    16.627609    83.138043 
   19200    1195.0877   -3907.6361   -4105.2124    314.50155    230.07927    259.67767     453.7477    16.627471    16.627471    83.137353 
   19300     1198.329   -3907.6556   -4105.7678    226.88067   -743.80376    650.40879    774.03699     16.62796     16.62796      83.1398 
   19400    1184.6232   -3907.6686   -4103.5149    340.80384   -510.48464   -1085.6239    2618.5201    16.628834    16.628834     83.14417 
   19500      1209.58    -3907.682   -4107.6543   -584.17598   -747.35976   -1206.3139    201.14577    16.629745    16.629745    83.148723 
   19600    1181.8278   -3907.6692   -4103.0534   -36.240841   -1779.5685   -305.29492    1976.1408    16.630649    16.630649    83.153243 
   19700    1193.9596   -3907.6654   -4105.0552   -351.73278   -711.55402   -914.18167    570.53733    16.630547    16.630547    83.152735 
   19800    1214.5917   -3907.6873   -4108.4881   -586.05734    148.83776   -1827.9771   -79.032636    16.629241    16.629241    83.146204 
   19900    1209.9674   -3907.7372   -4107.7736   -201.97675     40.02914   -346.46473   -299.49465    16.627202    16.627202    83.136011 
   20000     1183.636   -3907.8102   -4103.4934    1181.0126    680.99325    1600.2333    1261.8113    16.625028    16.625028     83.12514 
   20100    1220.6395   -3907.8928   -4109.6935    449.40678   -342.55515   -1144.5941    2835.3696    16.623652    16.623652    83.118259 
   20200    1229.0405   -3908.0201   -4111.2097   -273.01964    1803.5572    -1747.545   -875.07114      16.6225      16.6225    83.112502 
   20300    1207.4274   -3908.1415   -4107.7579    579.19614    1106.2353     871.0073   -239.65416    16.622147    16.622147    83.110733 
   20400    1172.8057   -3908.2313    -4102.124    1112.8921    993.42465    1754.1898    591.06188    16.623141    16.623141    83.115707 
   20500     1199.652   -3908.2866   -4106.6175    1.2060624    496.80537   -463.81384   -29.373345    16.625451    16.625451    83.127253 
   20600    1179.1723   -3908.3444   -4103.2895     654.9126    942.95993    459.59489      562.183    16.627791    16.627791    83.138953 
   20700    1240.7215   -3908.4036   -4113.5243   -1403.0429    277.18516   -2409.0079   -2077.3059    16.629732    16.629732    83.148661 
   20800     1200.939   -3908.4645   -4107.0082   -354.51618   -731.26572    132.89689    -465.1797    16.630548    16.630548     83.15274 
   20900    1243.0264   -3908.5371   -4114.0389   -1742.8048   -1153.2029   -2544.7301   -1530.4815    16.630441    16.630441    83.152204 
   21000     1182.818   -3908.6454   -4104.1932    426.86565   -1014.1898    609.53878    1685.2479    16.628762    16.628762     83.14381 
   21100    1217.5466   -3908.7004   -4109.9897   -395.75305   -595.48741   -781.86132    190.08958      16.6275      16.6275    83.137501 
   21200    1181.6676   -3908.7715   -4104.1292    514.37779    106.21231    795.99952    640.92155    16.625883    16.625883    83.129414 
   21300    1213.8816   -3908.8338   -4109.5172    9.9738385    1052.4302   -622.78707    -399.7216    16.624501    16.624501    83.122507 
   21400    1222.7845   -3908.9289   -4111.0842   -206.80723   -1577.8281    394.82163    562.58477    16.622956    16.622956    83.114782 
   21500    1190.4131   -3909.0299   -4105.8334    835.62323    -120.6234    197.98058    2429.5125    16.621696    16.621696    83.108478 
   21600    1203.2028   -3909.1444   -4108.0624    229.79424   -169.58157    10.221601    848.74268    16.620935    16.620935    83.104674 
   21700     1218.196   -3909.2559   -4110.6526   -236.59962   -2538.8596    74.744344    1754.3164    16.620924    16.620924     83.10462 
   21800    1179.7002   -3909.3691   -4104.4016     1155.416      1254.18    798.63341    1413.4347    16.621266    16.621266    83.106331 
   21900    1245.6504     -3909.45   -4115.3856   -652.85221   -129.54083   -867.70824   -961.30756    16.622956    16.622956    83.114781 
   22000    1194.7216   -3909.5576   -4107.0734    760.17498    493.14949    73.797063    1713.5784    16.624521    16.624521    83.122605 
   22100    1200.2705   -3909.7025   -4108.1356     144.9052    642.13369    -753.2471    545.82902    16.625904    16.625904     83.12952 
   22200    1227.9143   -3909.8498   -4112.8531   -1162.4524   -897.11729   -761.16349   -1829.0766    16.626842    16.626842    83.134212 
   22300    1202.1394   -3909.9913   -4108.7335   -512.36737    606.39188   -1456.7732    -686.7208    16.626628    16.626628    83.133138 
   22400    1177.1749   -3910.0891   -4104.7041    100.86278   -3075.2576    1372.1763    2005.6697    16.626105    16.626105    83.130526 
   22500    1176.5684   -3910.1627   -4104.6773   -43.183958   -1022.1717    1163.8001   -271.18037    16.625066    16.625066    83.125329 
   22600    1181.0613   -3910.2255    -4105.483    356.81476   -423.45143   -423.01932     1916.915    16.623185    16.623185    83.115926 
   22700    1241.9034   -3910.2659    -4115.582    -899.9218   -2853.7609    400.38384   -246.38833    16.621195    16.621195    83.105977 
   22800    1198.2294   -3910.3016   -4108.3974     451.0943    1849.5868    1152.3473   -1648.6511    16.619437    16.619437    83.097187 
   22900    1255.4053   -3910.2962   -4117.8444   -743.70578    -1128.681   -938.29295   -164.14337    16.619154    16.619154     83.09577 
   23000    1182.0284   -3910.3376   -4105.7549    702.22485    50.776232    796.20126    1259.6971    16.618762    16.618762    83.093809 
   23100    1181.7874   -3910.3546   -4105.7321    951.56838    2410.0457   -23.209418    467.86887    16.619582    16.619582    83.097911 
   23200      1174.83   -3910.3198   -4104.5471    865.04613    2350.1366    -325.3703    570.37207    16.622108    16.622108    83.110538 
   23300    1227.2523   -3910.2869   -4113.1808   -780.52977   -682.62595   -630.62099   -1028.3424    16.624952    16.624952    83.124759 
   23400    1225.8115   -3910.3203    -4112.976    -937.8234   -2136.7476   -613.03967   -63.682892    16.626337    16.626337    83.131685 
   23500    1186.1341   -3910.3724   -4106.4685   -367.20353    732.49622   -381.56309   -1452.5437    16.626557    16.626557    83.132787 
   23600    1186.8146   -3910.3669   -4106.5755   -112.08343    1319.6048    425.13887    -2080.994    16.626684    16.626684    83.133419 
   23700    1198.9074   -3910.3301    -4108.538   -348.86968    2064.0691   -570.50627   -2540.1719    16.626506    16.626506     83.13253 
   23800    1210.5886   -3910.3017   -4110.4408   -98.173702    674.59614   -302.66672   -666.45052    16.625797    16.625797    83.128983 
   23900    1198.6951   -3910.2632    -4108.436   -261.02565   -1200.2835   -977.41619    1394.6228    16.625334    16.625334    83.126672 
   24000    1198.6906   -3910.2224   -4108.3944    91.504603    77.144622     805.4581   -608.08891    16.624881    16.624881    83.124406 
   24100    1179.2387   -3910.1599    -4105.116    657.62432    720.22615   -407.56763    1660.2144    16.624618    16.624618    83.123089 
   24200    1163.5072   -3910.1036   -4102.4589    621.07167   -461.28356    274.90277    2049.5958    16.624458    16.624458    83.122291 
   24300    1226.7345   -3910.0448   -4112.8531   -560.02975   -2214.4095   -1513.7502    2048.0705    16.624484    16.624484    83.122421 
   24400    1190.7137   -3909.9967     -4106.85     354.2393    1805.4904   -141.38714   -601.38535    16.624693    16.624693    83.123463 
   24500    1168.8527   -3909.9777   -4103.2168    1299.0534    680.33684      3141.22    75.603288    16.624773    16.624773    83.123866 
   24600    1184.5311   -3909.9856   -4105.8167     425.0512    1489.9729   -6.2848255   -208.53444    16.624787    16.624787    83.123934 
   24700    1167.8852   -3909.9642   -4103.0433    543.38104   -538.51023    979.25896    1189.3944    16.624858    16.624858    83.124289 
   24800    1211.2454   -3909.9596   -4110.2072   -379.40656    -417.9717    68.985986   -789.23397    16.624653    16.624653    83.123264 
   24900    1198.7991   -3909.9794   -4108.1694    296.11014   -1550.2525    632.91735    1805.6655    16.623941    16.623941    83.119704 
   25000    1195.1479   -3910.0127    -4107.599   -68.016383    382.10599   -198.46576   -387.68938    16.623146    16.623146    83.115728 
   25100    1189.6987   -3910.0152   -4106.7007    435.18925    112.36761    888.72367    304.47647    16.622553    16.622553    83.112764 
   25200    1189.8382    -3909.951   -4106.6594    570.17398    1681.9791    1457.1707   -1428.6278    16.623069    16.623069    83.115344 
   25300    1182.9956   -3909.8832   -4105.4604    460.43614    1490.8204   -1068.0477    958.53573    16.623776    16.623776    83.118878 
   25400    1202.9165   -3909.8034   -4108.6741   -368.69491   -76.201312   -1221.7199    191.83651    16.624739    16.624739    83.123697 
   25500     1212.055   -3909.7356    -4110.117   -425.12167   -1370.8859   -781.12686     876.6477    16.625284    16.625284     83.12642 
   25600    1183.0332    -3909.705   -4105.2885    208.57519    217.91236   -119.96644    527.77967     16.62528     16.62528    83.126398 
   25700    1198.2585   -3909.6385   -4107.7391   -166.68028    356.59175    -1656.162    799.52943    16.625985    16.625985    83.129925 
   25800    1188.4836   -3909.6195    -4106.104    52.784264    109.09473    215.37512   -166.11706    16.625984    16.625984    83.129918 
   25900    1190.5673   -3909.6277   -4106.4567    316.70765    2217.3015   -873.81744   -393.36109    16.625296    16.625296    83.126478 
   26000    1233.4311   -3909.6584   -4113.5738   -588.28304    1011.2139   -960.50331   -1815.5598    16.624486    16.624486     83.12243 
   26100    1190.8017   -3909.7521   -4106.6199   0.81035532    1032.7861   -1603.5869    573.23181    16.623108    16.623108     83.11554 
   26200    1188.6538   -3909.8486   -4106.3612    920.21217    1099.7469    603.60179    1057.2879    16.621607    16.621607    83.108036 
   26300    1207.9372   -3909.9286   -4109.6293    110.01503   -35.066992     94.02306    271.08903    16.621172    16.621172    83.105858 
   26400    1224.7133   -3909.9832   -4112.4573   -1.3827944    630.06726   -447.70972   -186.50593    16.621659    16.621659    83.108297 
   26500    1184.7877   -3910.0658   -4105.9393    526.23585    881.93146     353.1646    343.61148    16.622583    16.622583    83.112915 
   26600    1193.8465    -3910.115   -4107.4862    -102.3745   -1942.1342    1345.2254    289.78539    16.624264    16.624264    83.121318 
   26700    1206.3289   -3910.1428   -4109.5775   -607.02909   -750.03273   -1305.5774     234.5229    16.625841    16.625841    83.129203 
   26800    1155.0544   -3910.1846   -4101.1425    692.10642   -102.04497    217.49015    1960.8741     16.62651     16.62651     83.13255 
   26900    1197.4849   -3910.2072   -4108.1798   -291.55384   -483.45245   -306.42926   -84.779814    16.626485    16.626485    83.132427 
   27000    1147.4189   -3910.2315   -4099.9271    1106.0078    1673.3027    1013.0757    631.64485    16.625585    16.625585    83.127923 
   27100    1174.9547   -3910.1802   -4104.4281    587.53695    368.21736    1214.3491    180.04437    16.625352    16.625352    83.126758 
   27200    1161.7142   -3910.0695   -4102.1284        811.8    1132.9979     298.3296    1004.0725    16.625814    16.625814    83.129069 
   27300    1154.2953   -3909.9144   -4100.7468    972.44801   -191.87344    2305.2094    804.00811    16.626963    16.626963    83.134817 
   27400     1182.542   -3909.7359   -4105.2382      99.5868    1587.6888    783.86344   -2072.7919    16.628347    16.628347    83.141737 
   27500    1206.8969    -3909.576   -4109.1047   -672.28134      419.365   -882.88473   -1553.3243    16.628891    16.628891    83.144456 
   27600    1234.7805   -3909.4553   -4113.5938   -1264.5971   -1961.3785    104.55593   -1936.9688    16.628308    16.628308    83.141538 
   27700    1204.7995   -3909.3422   -4108.5242   -424.83882    1861.3813   -246.99163   -2888.9061    16.627014    16.627014    83.135069 
   27800    1214.9841   -3909.2289   -4110.0946   -365.51857   -1989.1028    1946.3978   -1053.8507    16.625517    16.625517    83.127585 
   27900    1242.5441   -3909.1373   -4114.5593   -940.24988   -1049.9701   -881.74315   -889.03644    16.623719    16.623719    83.118594 
   28000    1172.0718   -3909.0809   -4102.8522    1081.3035   -9.2217554    875.15905    2377.9732     16.62165     16.62165    83.108249 
   28100    1165.2159   -3909.0295   -4101.6673    1291.5349    1884.1892    1120.2932    870.12228    16.620806    16.620806    83.104031 
   28200    1218.7925   -3908.9656   -4110.4609    437.90347    673.10935    1304.4779   -663.87682    16.621399    16.621399    83.106994 
   28300    1201.0913   -3908.9382   -4107.5071    506.75769   -841.74575    1886.3041    475.71472    16.622533    16.622533    83.112667 
   28400    1194.8693   -3908.9691   -4106.5094    -21.78988   -1847.4639   -780.02777     2562.122    16.623515    16.623515    83.117573 
   28500    1187.8766   -3908.9977   -4105.3819    715.23378   -442.89689     1916.003    672.59521    16.624488    16.624488    83.122439 
   28600    1222.6166   -3908.9961   -4111.1236   -622.54861   -2000.0598    -801.9295    934.34349    16.626319    16.626319    83.131595 
   28700    1170.4181   -3908.9892    -4102.487    296.13839   -208.73993   -481.22052    1578.3756    16.628161    16.628161    83.140806 
   28800    1210.4124   -3908.9591    -4109.069   -936.21602    87.636642   -57.312103   -2838.9726    16.629578    16.629578    83.147891 
   28900     1220.899    -3908.943   -4110.7866   -693.96571   -805.40401   -328.77728   -947.71584    16.629636    16.629636    83.148182 
   29000    1224.6541   -3908.9558   -4111.4201   -1002.1582    263.78026     -2840.69   -429.56475    16.628711    16.628711    83.143556 
   29100    1187.6022    -3909.005   -4105.3438    229.20052   -126.07359   -1669.4034    2483.0786    16.626481    16.626481    83.132405 
   29200    1201.4461   -3909.0606   -4107.6882    120.04605   -1075.5798    1346.1027     89.61521     16.62366     16.62366      83.1183 
   29300    1177.6022    -3909.088   -4103.7736    1165.1192   -656.27292    2846.0452    1305.5855    16.621376    16.621376    83.106879 
   29400    1174.4224   -3909.1046   -4103.2644    1075.0504    1514.2669    405.76317     1305.121    16.620239    16.620239    83.101194 
   29500    1235.4376   -3909.1158   -4113.3629   -454.46872    240.27661    1.9880672   -1605.6708    16.620596    16.620596    83.102978 
   29600    1183.2677   -3909.1034   -4104.7256    780.04674    1454.2932   -244.83627    1130.6833     16.62208     16.62208    83.110401 
   29700    1218.1761   -3909.0861   -4110.4795   -523.35412   -2323.8585    1012.6135   -258.81738    16.624571    16.624571    83.122855 
   29800    1150.2698   -3909.0876   -4099.2545    1025.9225    381.79698    2291.6366    404.33379    16.626815    16.626815    83.134074 
   29900    1209.2134   -3909.0319   -4108.9436   -617.49056   -2096.4868    786.69157   -542.67641    16.629437    16.629437    83.147187 
   30000    1190.2992   -3908.9871   -4105.7718   -517.92244   -1811.5846    1312.3726   -1054.5553    16.630834    16.630834     83.15417 
   30100    1196.9327   -3908.9343   -4106.8157   -475.91716   -531.35648    1241.1502   -2137.5452    16.630988    16.630988    83.154938 
   30200    1203.7227    -3908.895   -4107.8989   -153.62546   -546.05713    623.70372   -538.52298    16.629715    16.629715    83.148573 
   30300    1192.7991   -3908.8767   -4106.0747    23.943821    2405.9218   -589.44927   -1744.6411    16.627653    16.627653    83.138266 
   30400    1213.3341   -3908.8188   -4109.4118   -268.68425    258.17829   -519.19084   -545.04021    16.625927    16.625927    83.129633 
   30500    1210.9866   -3908.7431    -4108.948    303.45943   -1353.1328    945.36996    1318.1411    16.624649    16.624649    83.123247 
   30600    1206.4045   -3908.6744   -4108.1217    315.06667   -321.74714    430.04429    836.90285    16.623946    16.623946    83.119731 
   30700    1206.9936    -3908.654   -4108.1987    13.577771    1153.4321   -2686.4864    1573.7876    16.623314    16.623314    83.116568 
   30800    1185.3239   -3908.6705   -4104.6327    772.78997     896.2692    226.11325    1195.9875    16.622765    16.622765    83.113825 
   30900    1244.7939   -3908.6905   -4114.4845   -906.38682   -586.79317    -1710.619   -421.74829    16.623129    16.623129    83.115645 
   31000    1208.1594    -3908.742   -4108.4794    226.43257   -719.59874   -134.65218    1533.5486    16.623725    16.623725    83.118624 
   31100    1207.3645   -3908.8048   -4108.4108   -73.682138   -163.15495   -460.11949    402.22802    16.624911    16.624911    83.124555 
   31200    1191.5582   -3908.9009   -4105.8938    96.255284   -316.42272    143.50814    461.68043    16.625775    16.625775    83.128875 
   31300    1198.7387   -3908.9748   -4107.1548    192.58793     1499.944    -1452.011    529.83081    16.626794    16.626794    83.133971 
   31400    1214.8287   -3909.0733   -4109.9133   -714.23418   -2510.8249    1567.8685   -1199.7462     16.62747     16.62747    83.137349 
   31500    1221.2082    -3909.152   -4111.0467   -509.69989    578.11825    -1820.873   -286.34491    16.627846    16.627846    83.139229 
   31600    1222.8254   -3909.2543   -4111.4163   -805.14755   -43.230335   -875.62534    -1496.587     16.62764     16.62764    83.138201 
   31700    1186.2854   -3909.3558   -4105.4769   -32.676447   -746.20337   -702.98586    1351.1599    16.626807    16.626807    83.134034 
   31800    1193.1686   -3909.4543   -4106.7134    242.88149   -374.42985    1598.8942   -495.81987    16.625388    16.625388    83.126938 
   31900    1213.4379   -3909.5326   -4110.1427   -667.08322    447.48646   -1333.6267   -1115.1095    16.624098    16.624098     83.12049 
   32000    1217.1591   -3909.6202   -4110.8454   -280.65006   -566.55869   -651.79245    376.40097    16.622462    16.622462    83.112312 
   32100    1188.0859   -3909.7072    -4106.126    991.13796    689.85611   -474.87954    2758.4373    16.621001    16.621001    83.105005 
   32200     1177.285   -3909.7688   -4104.4019    1087.5442    1424.9267     1963.454   -125.74807    16.620868    16.620868    83.104341 
   32300    1193.7211   -3909.8091   -4107.1595    569.01018   -2086.7189    58.234603    3735.5148     16.62194     16.62194    83.109702 
   32400    1220.9314   -3909.8626   -4111.7116   -730.48318   -2231.6422    538.39691   -498.20424    16.623156    16.623156    83.115782 
   32500    1196.8592   -3909.9201   -4107.7893    47.709656   -702.13101    1267.9593   -422.69933    16.624114    16.624114     83.12057 
   32600    1199.6269   -3909.9547   -4108.2815    -481.2378   -1434.8046   -482.94703    474.03825      16.6252      16.6252       83.126 
   32700    1212.7645   -3909.9827   -4110.4815   -98.102272   -2219.2835   -340.15005    2265.1267    16.625509    16.625509    83.127544 
   32800    1173.9073   -3909.9869   -4104.0616    200.77131    590.35266   -1829.7703    1841.7316    16.626012    16.626012     83.13006 
   32900    1200.0321   -3909.9832   -4108.3769   -329.23861    200.58146    978.61637   -2166.9136     16.62618     16.62618      83.1309 
   33000     1195.797   -3909.9736   -4107.6672   -194.10957    1338.5394   -514.49523   -1406.3729    16.625815    16.625815    83.129074 
   33100    1166.8463   -3909.9301   -4102.8375    469.32033   -679.75778    2013.8249    73.893895    16.625546    16.625546    83.127728 
   33200    1246.7879    -3909.872   -4115.9956   -1426.8276   -815.97355   -1716.7643   -1747.7449    16.625095    16.625095    83.125473 
   33300    1192.7616   -3909.8096   -4107.0014    230.64463    -1281.172    216.62236    1756.4836    16.624704    16.624704    83.123521 
   33400    1181.3445    -3909.696   -4105.0003    299.22661    2220.2213   -758.06978   -564.47166    16.625452    16.625452    83.127259 
   33500    1198.2795   -3909.5916   -4107.6956   -8.7003796   -219.91146    185.95424    7.8560796    16.626182    16.626182    83.130908 
   33600     1202.091   -3909.4946   -4108.2287    280.79059    619.31781   -1828.3001    2051.3541    16.626761    16.626761    83.133803 
   33700     1168.655   -3909.3761   -4102.5825    841.02947     1202.126    92.614134    1228.3483    16.627743    16.627743    83.138715 
   33800    1210.8588   -3909.2459   -4109.4296   -601.04905   -14.661662   -1238.5767   -549.90875    16.628916    16.628916    83.144579 
   33900    1163.8094   -3909.0971   -4101.5024    625.43962    355.10979   -52.781908     1573.991    16.629981    16.629981    83.149904 
   34000     1212.226   -3908.9451   -4109.3549   -918.92608    -488.4661   -1538.8672   -729.44497    16.630538    16.630538    83.152689 
   34100    1202.4709   -3908.8424   -4107.6394   -272.82325   -377.19252    -926.7599    485.48267    16.629421    16.629421    83.147103 
   34200    1184.3258   -3908.7351   -4104.5323   -209.19664    236.40736   -80.748493    -783.2488    16.627894    16.627894    83.139472 
   34300     1193.409   -3908.5829   -4105.8818    126.69611    774.63337     152.2908   -546.83585    16.626824    16.626824    83.134122 
   34400    1216.5321   -3908.4165   -4109.5381   -380.34461   -884.16284   -553.73563    296.86464    16.626346    16.626346    83.131731 
   34500    1181.2165     -3908.26   -4103.5431    365.52848    1073.5304   -386.03119     409.0862    16.626208    16.626208    83.131038 
   34600    1220.0537   -3908.0807   -4109.7846   -397.45167   -558.15416   -2132.6492    1498.4484    16.626823    16.626823    83.134114 
   34700    1205.5478   -3907.9588   -4107.2644    260.37402    1410.3945    253.28386   -882.55626    16.627158    16.627158    83.135792 
   34800    1173.3408   -3907.8416   -4101.8227    398.03918   -12.494062      185.089    1021.5226    16.627848    16.627848    83.139238 
   34900    1195.3987    -3907.694   -4105.3218     -132.882    563.19196   -1905.2392    943.40125    16.628998    16.628998    83.144992 
   35000    1178.6491   -3907.5419   -4102.4006    622.14965    893.88144   -72.252968    1044.8205    16.630186    16.630186    83.150929 
   35100    1184.4925   -3907.3571   -4103.1818    414.40019   -967.78711   -842.83234      3053.82     16.63223     16.63223    83.161149 
   35200    1209.8281   -3907.1823   -4107.1955   -1077.8491   -391.36428   -1312.5967   -1529.5864    16.634125    16.634125    83.170625 
   35300    1177.5053   -3907.0082   -4101.6778   -323.82237   -563.22746    372.56393   -780.80358    16.635034    16.635034     83.17517 
   35400    1204.7087   -3906.8457   -4106.0127   -434.38169    -1671.279   -366.41431    734.54826    16.634913    16.634913    83.174566 
   35500    1163.9879   -3906.7264   -4099.1612    485.46312    828.29358     30.39314    597.70263    16.633699    16.633699    83.168494 
   35600    1202.3808   -3906.5938   -4105.3759   -598.09735   -787.11022    1484.6309   -2491.8127    16.632328    16.632328    83.161638 
   35700     1222.235   -3906.4343   -4108.4987   -474.66266    683.43639   -304.25824   -1803.1661    16.631113    16.631113    83.155565 
   35800    1178.3433   -3906.2805   -4101.0886    95.256308    358.63419   -979.07585    906.21059    16.630116    16.630116    83.150581 
   35900    1208.9187   -3906.1457   -4106.0086    -218.1878    35.285973   -493.59144   -196.25793     16.62901     16.62901    83.145052 
   36000    1165.8719   -3906.0558   -4098.8021    1117.7764    116.57943    2298.2844    938.46522    16.627549    16.627549    83.137743 
   36100    1218.8528   -3905.9643   -4107.4696    172.26228   -264.96602     892.4087   -110.65584    16.626806    16.626806    83.134031 
   36200    1194.7809   -3905.9109   -4103.4365    475.06472    637.82185    -522.8019    1310.1742     16.62651     16.62651    83.132548 
   36300     1188.652   -3905.8625   -4102.3748    718.58049    814.02963     748.7266    592.98525    16.626985    16.626985    83.134925 
   36400    1187.7151   -3905.8117   -4102.1692     869.8909    2376.2885   -553.73648    787.12066    16.628403    16.628403    83.142016 
   36500    1228.4968    -3905.739   -4108.8386   -476.34264    543.89504   -542.49134   -1430.4316    16.630983    16.630983    83.154916 
   36600    1186.6918   -3905.7071   -4101.8954     591.1653    1059.0992   -245.96209    960.35879    16.633146    16.633146     83.16573 
   36700    1184.8759   -3905.6884   -4101.5765   -104.85041    1016.5802   -367.56029   -963.57119    16.635266    16.635266    83.176332 
   36800     1177.215   -3905.6488   -4100.2703    15.157695    877.95634   -2016.4303     1183.947    16.636746    16.636746    83.183729 
   36900    1184.0719   -3905.5944   -4101.3496    160.60261   -1664.7161    1868.5388    277.98511    16.637473    16.637473    83.187367 
   37000     1219.464   -3905.5308   -4107.1371   -1197.7418   -182.03277    -2446.078    -965.1147    16.637835    16.637835    83.189176 
   37100    1177.5999   -3905.4378    -4100.123    198.63237   -1709.5587    1324.0908     981.3651    16.637398    16.637398    83.186991 
   37200     1209.834   -3905.3402   -4105.3545    -1003.132   -1019.1204   -1964.6855   -25.590137      16.6366      16.6366    83.183002 
   37300    1221.7382    -3905.255   -4107.2374   -889.60455    1797.8297    -2785.436   -1681.2074    16.634728    16.634728     83.17364 
   37400      1210.68   -3905.2376   -4105.3918   -144.13597   -107.40107    126.01013   -451.01698    16.631697    16.631697    83.158486 
   37500    1200.2952   -3905.1804   -4103.6177    470.56251      810.026    774.11999   -172.45846    16.629462    16.629462    83.147309 
   37600     1189.799   -3905.1181   -4101.8201    666.03813    689.36635    580.09447    728.65355     16.62821     16.62821     83.14105 
   37700    1222.1982   -3905.0619   -4107.1203    325.18508    1252.1692    -1363.865     1087.251    16.627901    16.627901    83.139507 
   37800    1218.1589   -3905.0456   -4106.4362    496.51361    313.38285   -79.382696    1255.5407    16.628427    16.628427    83.142134 
   37900    1195.6118   -3905.0399   -4102.7029    681.50331    1762.8602   -1079.5647    1361.2144    16.630133    16.630133    83.150664 
   38000    1173.3517   -3905.0236   -4099.0065    493.06747    222.93037    805.22612    451.04592    16.633151    16.633151    83.165754 
   38100    1221.4612   -3904.9719   -4106.9084   -1045.9917   -1160.3259   -2365.3353    387.68603    16.636544    16.636544    83.182719 
   38200    1217.7934   -3904.9575   -4106.2877   -1268.1664    265.72082   -2047.1649   -2023.0552    16.638583    16.638583    83.192914 
   38300    1189.3961   -3904.9331   -4101.5685   -302.62763   -745.98495   -918.75104     756.8531    16.639651    16.639651    83.198256 
   38400    1217.9403   -3904.8462   -4106.2006   -1541.1944   -1461.9481   -1527.6145   -1634.0205    16.640316    16.640316     83.20158 
   38500    1185.7362   -3904.7454   -4100.7757   -235.38575     195.6189    569.52291   -1471.2991    16.639433    16.639433    83.197166 
   38600    1189.1015   -3904.6379   -4101.2246    193.23095   -1514.8095   -73.600344    2168.1027    16.637402    16.637402     83.18701 
   38700    1176.0349   -3904.5373   -4098.9637    300.47214   -1.8958331   -101.78989    1005.1021    16.634925    16.634925    83.174626 
   38800    1198.5174   -3904.4341   -4102.5774    419.12141    347.18522   -389.50881    1299.6878     16.63278     16.63278    83.163902 
   38900    1254.9329   -3904.3742   -4111.8444   -924.78175   -372.53462    -1721.137   -680.67365    16.630633    16.630633    83.153165 
   39000    1216.4832   -3904.3737   -4105.4873    108.89292    1158.2356   -666.39663   -165.16024    16.628757    16.628757    83.143785 
   39100    1233.6984   -3904.3718   -4108.3315   -247.65038   -1110.7133   -930.81173    1298.5739    16.628408    16.628408    83.142038 
   39200    1222.5073   -3904.3597   -4106.4691   -231.24546   -786.17699   -1129.4386    1221.8792    16.629413    16.629413    83.147064 
   39300    1197.0928   -3904.3784   -4102.2862    139.92471   -440.02912    1221.3689   -361.56562    16.630876    16.630876     83.15438 
   39400    1199.3427    -3904.399   -4102.6788    133.65844    446.91792    72.373724   -118.31633    16.632869    16.632869    83.164347 
   39500    1218.1591   -3904.3797   -4105.7703   -1020.1583   -1540.2896   -903.83654   -616.34873    16.635748    16.635748    83.178741 
   39600    1194.7036   -3904.3381    -4101.851   -204.59766    544.10178   -413.49142   -744.40335     16.63822     16.63822    83.191101 
   39700    1196.8722   -3904.3035   -4102.1749   -933.41102    34.698553   -1019.2351   -1815.6965    16.639765    16.639765    83.198824 
   39800     1206.399   -3904.2679   -4103.7143   -1247.3469   -3056.0223   -929.34511    243.32656    16.639954    16.639954    83.199769 
   39900    1168.3372   -3904.2331    -4097.387    434.84393     682.7758   -706.05066    1327.8067    16.638919    16.638919    83.194596 
   40000    1208.9033   -3904.1867   -4104.0471   -677.17723   -888.67173   -617.57197   -525.28799    16.637573    16.637573    83.187864 
   40100    1178.9435   -3904.1945   -4099.1018    274.25903   -12.294111    1363.7577   -528.68651    16.634869    16.634869    83.174345 
   40200     1208.084   -3904.1848   -4103.9097    628.93135    1545.1133    558.78059   -217.09989    16.632165    16.632165    83.160823 
   40300    1198.4245   -3904.1848   -4102.3128    455.21315    2657.4206   -754.79024   -536.99088    16.630411    16.630411    83.152057 
   40400    1233.1359   -3904.2489   -4108.1155    84.539342    164.21704   -860.39757    949.79855    16.629038    16.629038    83.145191 
   40500    1205.9831   -3904.3422   -4103.7199    252.27591    2618.2816   -1687.6383   -173.81559    16.628574    16.628574    83.142872 
   40600    1199.3124   -3904.4253   -4102.7001    871.75632    547.87208    911.33338    1156.0635    16.629249    16.629249    83.146247 
   40700    1221.2902   -3904.5027    -4106.411   -450.43707   -114.79389   -1503.3649    266.84762    16.631033    16.631033    83.155163 
   40800    1162.5812   -3904.5935   -4096.7958    1069.1679   -503.78934     1601.256    2110.0371     16.63261     16.63261    83.163051 
   40900    1207.2629   -3904.6733   -4104.2625   -236.61467   -2305.2968     847.6772    747.77559    16.634061    16.634061    83.170307 
   41000    1200.4241    -3904.761   -4103.2196   -162.72579    1120.3384   -971.85231   -636.66347    16.635051    16.635051    83.175255 
   41100    1183.6123   -3904.8504   -4100.5296    80.685214    546.15749   -1121.4729    817.37105    16.635642    16.635642     83.17821 
   41200    1209.2726   -3904.8979   -4104.8194   -390.94193   -1250.8268    114.25524   -36.254234    16.636356    16.636356    83.181781 
   41300    1209.6771   -3904.9169   -4104.9052   -650.68355   -1288.2845   -164.18138   -499.58474    16.637185    16.637185    83.185925 
   41400     1211.059    -3904.928   -4105.1448   -757.95969   -39.975924   -1095.6166   -1138.2866    16.637485    16.637485    83.187427 
   41500    1209.1321   -3904.9258    -4104.824   -762.19018   -1024.2334    -305.5708   -956.76637    16.637137    16.637137    83.185684 
   41600     1191.702   -3904.9502   -4101.9668    -248.7243   -789.73995   -2025.1132    2068.6802    16.635727    16.635727    83.178634 
   41700    1189.0048   -3904.9244   -4101.4951    346.54141   -984.23842   -740.41245    2764.2751    16.634387    16.634387    83.171933 
   41800     1190.786   -3904.8785   -4101.7437    504.73116    921.37488     21.23554    571.58307    16.633477    16.633477    83.167385 
   41900    1209.5759    -3904.872   -4104.8436    43.685692   -1378.4586    1111.7924     397.7233    16.632158    16.632158    83.160792 
   42000    1201.4879   -3904.8896    -4103.524    369.80037   -112.96961   -360.12814    1582.4989    16.630718    16.630718    83.153592 
   42100     1209.248   -3904.9257   -4104.8431    129.10426    1183.2442   -1671.5685     875.6371    16.629725    16.629725    83.148625 
   42200    1243.2629   -3904.9659   -4110.5067   -474.28394   -2317.9426   -125.18941    1020.2802    16.629328    16.629328    83.146642 
   42300    1198.9804   -3905.0476   -4103.2675   -47.136937    927.94571   -649.08916   -420.26736    16.629442    16.629442    83.147212 
   42400    1201.9007   -3905.0912   -4103.7939   -179.65745    -182.9574   -671.09509    315.08014    16.630469    16.630469    83.152344 
   42500    1174.8695   -3905.1552    -4099.389    452.67632    838.47314   -610.01708    1129.5729    16.631285    16.631285    83.156425 
   42600    1216.4831   -3905.1922   -4106.3057   -555.82453     226.4651    -1346.387   -547.55168    16.632114    16.632114    83.160569 
   42700    1191.3854   -3905.2206   -4102.1849    224.27011    289.64051     526.4411   -143.27127    16.632615    16.632615    83.163075 
   42800    1162.9712   -3905.2427   -4097.5094    370.15741   -810.66451    1176.1246    745.01211    16.632765    16.632765    83.163824 
   42900    1155.9577   -3905.2519   -4096.3591     946.3959    1172.2467    1640.8198    26.121197    16.632365    16.632365    83.161824 
   43000     1190.117   -3905.2358   -4101.9904    432.61406    282.95081   -905.17119    1920.0626     16.63233     16.63233     83.16165 
   43100    1197.9688   -3905.1785   -4103.2312   -115.05292    1651.2859   -1014.0782   -982.36648       16.633       16.633    83.165001 
   43200     1185.342   -3905.1324   -4101.0975    201.01661   -507.40396    949.21188    161.24193    16.633345    16.633345    83.166727 
   43300    1206.4383   -3905.0701   -4104.5229    -38.05193    867.89579   -1108.9654    126.91379    16.633877    16.633877    83.169383 
   43400     1194.227   -3905.0006   -4102.4347    138.59157    459.36436   -1227.8233    1184.2337    16.634805    16.634805    83.174023 
   43500    1191.9236   -3904.9305   -4101.9838    99.625589    1254.6914   -263.35309   -692.46156    16.635828    16.635828    83.179138 
   43600    1202.0635   -3904.8507   -4103.5803   -747.06752     388.8461   -2258.7675   -371.28114    16.636731    16.636731    83.183653 
   43700    1177.7909     -3904.77   -4099.4868   -122.26268    901.39847   -2020.5175      752.331    16.636822    16.636822    83.184108 
   43800    1215.2896   -3904.6887   -4105.6049   -242.86384    620.35537   -1756.3071    407.36026    16.635942    16.635942    83.179708 
   43900    1189.1655   -3904.6483   -4101.2456    105.62463    2463.2289   -1208.6702   -937.68485    16.634321    16.634321    83.171607 
   44000    1169.1218   -3904.6114   -4097.8949    782.51604    2128.7114   -80.513942    299.35066    16.632551    16.632551    83.162753 
   44100    1187.8239   -3904.5418   -4100.9172    1013.8255     1882.987   -1451.0896    2609.5792     16.63159     16.63159    83.157951 
   44200     1194.484   -3904.4838   -4101.9604    591.67645     1044.086    203.12619    527.81721    16.631521    16.631521    83.157605 
   44300     1200.177   -3904.4412   -4102.8589    230.73189   -737.57132    296.64768    1133.1193    16.632299    16.632299    83.161493 
   44400    1170.8592    -3904.426   -4097.9968    1026.2952    988.14246    529.45229     1561.291    16.633608    16.633608     83.16804 
   44500    1232.2075   -3904.4016   -4108.1148   -894.51752   -562.83373   -1015.4074   -1105.3115    16.635653    16.635653    83.178263 
   44600    1214.6216   -3904.3925   -4105.1983   -1137.3785   -686.47462    -794.0286   -1931.6322    16.636862    16.636862    83.184312 
   44700    1182.2513   -3904.3833   -4099.8375   -32.336379    1140.0618   -430.42809   -806.64284    16.636982    16.636982    83.184909 
   44800    1176.3443    -3904.321   -4098.7986   -159.29239    22.380344   -331.88975   -168.36778    16.637028    16.637028    83.185142 
   44900    1190.1821   -3904.2378   -4101.0032   -128.69924   -708.29069    645.78558    -323.5926     16.63671     16.63671    83.183551 
   45000     1220.295   -3904.1843    -4105.928   -753.47056   -876.44767   -1013.6382   -370.32577    16.635723    16.635723    83.178616 
   45100    1180.3316   -3904.1599   -4099.2968    420.50062    1237.0685    375.17514   -350.74181    16.633803    16.633803    83.169017 
   45200    1231.5742   -3904.1098   -4107.7182   -690.18093   -390.18526    91.306682   -1771.6642    16.632042    16.632042    83.160212 
   45300    1212.8279   -3904.0631   -4104.5724   -112.95554    1088.8603   -1207.1902   -220.53674    16.630576    16.630576    83.152881 
   45400    1193.8382   -3904.0165   -4101.3863    273.13848   -218.46983    535.40023    502.48505     16.62974     16.62974    83.148698 
   45500    1176.6999   -3903.9814   -4098.5178    960.69659   -598.57984    2205.2911    1275.3785    16.629411    16.629411    83.147055 
   45600    1217.4127   -3903.9099   -4105.1771    105.60361    1366.3099   -1616.7505    567.25141    16.630686    16.630686    83.153431 
   45700    1168.4562   -3903.8519   -4097.0254    1292.0534    483.08697    1401.7564     1991.317    16.633031    16.633031    83.165157 
   45800     1220.408   -3903.7539   -4105.5163    -910.7607   -2029.0552   -23.130147   -680.09678    16.636675    16.636675    83.183373 
   45900    1218.9393   -3903.6757   -4105.1953    -1219.691    -1062.017   -1161.2718   -1435.7843     16.63954     16.63954    83.197698 
   46000    1220.5565   -3903.5989   -4105.3858   -1439.6438   -1370.6291   -1775.3362   -1172.9662     16.64127     16.64127     83.20635 
   46100     1204.581   -3903.5089   -4102.6548   -797.30257   -1449.4016   -563.40621   -379.09994    16.641603    16.641603    83.208017 
   46200    1233.4097   -3903.4357   -4107.3476   -1518.1217   -2460.7938   -230.17292   -1863.3983    16.640568    16.640568     83.20284 
   46300    1187.1171   -3903.4153   -4099.6739    114.30217   -755.06823   -168.01513    1265.9899     16.63762     16.63762    83.188099 
   46400    1180.6619   -3903.4085   -4098.5999    124.28311    425.49056    787.52503   -840.16627    16.633923    16.633923    83.169614 
   46500    1220.1769   -3903.4062   -4105.1304    229.17379    691.15091    658.17888   -661.80842    16.630275    16.630275    83.151373 
   46600    1204.9807   -3903.4334   -4102.6453    729.22902   -1079.0025    2713.5381    553.15147    16.627511    16.627511    83.137553 
   46700    1169.9591   -3903.4676   -4096.8896    1940.8251     545.6907    2252.5844    3024.2001    16.626624    16.626624    83.133122 
   46800    1198.4689   -3903.4431   -4101.5784    390.57054   -1342.4511    2280.2114    233.95129    16.628941    16.628941    83.144703 
   46900    1203.5938   -3903.3912   -4102.3738      97.1756   -699.46291     200.0462    790.94351    16.632634    16.632634    83.163169 
   47000    1207.9602   -3903.3527   -4103.0572    -695.4793   -1862.6961    230.19039   -453.93218    16.636661    16.636661    83.183306 
   47100    1238.6193    -3903.336   -4108.1091   -1602.0337   -2226.1922   -1798.0697   -781.83929    16.639839    16.639839    83.199194 
   47200    1225.7039   -3903.3282   -4105.9661   -766.59898   -2177.6564   -1456.5019    1334.3613    16.641884    16.641884    83.209418 
   47300    1193.6492   -3903.3373   -4100.6758   -915.85234    -435.1414   -3060.1904    747.77475    16.642964    16.642964    83.214821 
   47400    1227.9581   -3903.3463   -4106.3569   -1071.9612   -649.38593    -2185.631   -380.86664    16.642407    16.642407    83.212036 
   47500    1204.6932   -3903.3595   -4102.5239   -514.77085   -418.26119    -964.2254   -161.82597    16.640564    16.640564    83.202819 
   47600    1228.9344   -3903.3344   -4106.5064   -809.29905    102.95055   -1955.9363    -574.9114    16.638365    16.638365    83.191825 
   47700    1191.0826   -3903.3202   -4100.2344    174.74301   -530.51231   -608.03461     1662.776    16.635699    16.635699    83.178496 
   47800    1200.7217   -3903.3053   -4101.8131    526.41459    425.54821    1201.6147   -47.919171    16.633187    16.633187    83.165935 
   47900    1199.4531   -3903.2984   -4101.5965    621.78087    1746.1112   -929.46166    1048.6931    16.631323    16.631323    83.156614 
   48000    1222.2076   -3903.2726   -4105.3325   -42.957014    45.482008   -1947.2659    1772.9129    16.630671    16.630671    83.153353 
   48100     1191.852   -3903.2797   -4100.3211    569.50231   -1019.3836    1423.5891    1304.3014    16.630447    16.630447    83.152237 
   48200     1212.277   -3903.2642   -4103.6823     83.94329    1090.9883     372.7264   -1211.8848     16.63122     16.63122    83.156099 
   48300    1178.5075    -3903.273   -4098.1083    716.24541    1101.6424   -117.64229    1164.7361    16.632426    16.632426    83.162129 
   48400    1199.5528   -3903.3138   -4101.6283    316.33586    699.49188    403.57881   -154.06313     16.63405     16.63405    83.170248 
   48500    1189.8888   -3903.3188   -4100.0356    28.053943   -513.66657   -1207.4804    1805.3088    16.636791    16.636791    83.183957 
   48600    1198.8765   -3903.3076   -4101.5103   -728.43175    -2766.625   -455.69285    1037.0226    16.639296    16.639296    83.196482 
   48700    1186.6981   -3903.3017   -4099.4911    133.16857     1152.556    283.60657   -1036.6569    16.640592    16.640592    83.202958 
   48800    1195.9643     -3903.31   -4101.0312   -518.74361   -860.34885   -1055.6177    359.73578    16.640997    16.640997    83.204983 
   48900    1161.1317    -3903.323   -4095.2856    232.63102    75.957671    392.79566    229.13972    16.640337    16.640337    83.201684 
   49000    1152.7709   -3903.2954   -4093.8757    883.01304    286.16449   -335.00243     2697.877    16.639184    16.639184    83.195919 
   49100     1188.682   -3903.2595   -4099.7769    695.07542   -316.25518    1149.0422    1252.4393     16.63758     16.63758    83.187901 
   49200    1237.1214   -3903.2558   -4107.7813    -1196.536   -2943.7323   -1124.1792    478.30338    16.635683    16.635683    83.178415 
   49300    1165.5882   -3903.2685   -4095.9679    1400.2721    1336.5195    1623.0561    1241.2406    16.633165    16.633165    83.165823 
   49400    1170.6302   -3903.2756   -4096.8085     1042.384    3344.5555   -741.38542    523.98178    16.631445    16.631445    83.157227 
   49500    1159.9132   -3903.2702   -4095.0314    1720.3181    86.723319    2364.6935    2709.5375    16.630662    16.630662    83.153311 
   49600    1175.9367    -3903.208   -4097.6182    711.13745   -1386.1829    637.21878    2882.3765    16.632102    16.632102     83.16051 
   49700    1183.3949   -3903.1175   -4098.7607    544.09307     992.8444    286.77774    352.65709    16.634416    16.634416    83.172081 
   49800    1170.5943   -3903.0029   -4096.5299    552.34874    14.348348     346.6029     1296.095    16.637023    16.637023    83.185116 
   49900    1184.9605   -3902.8441   -4098.7462    13.361484    865.30944   -616.53855   -208.68643    16.640166    16.640166     83.20083 
   50000    1182.7544   -3902.6215   -4098.1588   -599.79504   -2765.0227    1460.2615   -494.62397    16.643641    16.643641    83.218206 
Loop time of 237.563 on 1 procs for 50000 steps with 1280 atoms

Pair  time (%) = 210.195 (88.4797)
Neigh time (%) = 18.6006 (7.82973)
Comm  time (%) = 3.26978 (1.37638)
Outpt time (%) = 0.109868 (0.046248)
Other time (%) = 5.38768 (2.26789)

Nlocal:    1280 ave 1280 max 1280 min
Histogram: 1 0 0 0 0 0 0 0 0 0
Nghost:    3915 ave 3915 max 3915 min
Histogram: 1 0 0 0 0 0 0 0 0 0
Neighs:    45540 ave 45540 max 45540 min
Histogram: 1 0 0 0 0 0 0 0 0 0

Total # of neighbors = 45540
Ave neighs/atom = 35.5781
Neighbor list builds = 5000
Dangerous builds = 0
unfix		1

# Melt half the system
region  liquid block INF INF INF INF INF ${nzhalf}
region  liquid block INF INF INF INF INF 10
group	liquid_group region liquid
650 atoms in group liquid_group

# Heat up one side to Tmelt to make sure it is melted
fix 2 liquid_group npt temp ${Tmelt} ${Tmelt} 1 z 0 0 10 drag 1.0
fix 2 liquid_group npt temp 2000 ${Tmelt} 1 z 0 0 10 drag 1.0
fix 2 liquid_group npt temp 2000 2000 1 z 0 0 10 drag 1.0
run		${eqsteps}
run		50000
Memory usage per processor = 3.13778 Mbytes
Step Temp TotEng PotEng Press Pxx Pyy Pzz Lx Ly Lz 
   50000    1182.7544   -3902.6215   -4098.1588   -599.79504   -2765.0227    1460.2615   -494.62397    16.643641    16.643641    83.218206 
   50100    1159.5135   -3902.2354   -4093.9305    159.03667   -1316.4017    1095.7033    697.80842    16.643641    16.643641    83.218393 
   50200    1217.9424   -3901.1803   -4102.5351   -795.86029   -1981.4386   -573.33947    167.19714    16.643641    16.643641    83.219014 
   50300    1210.2932   -3899.6798     -4099.77   -399.07569    -1347.611     930.5194   -780.13553    16.643641    16.643641    83.219954 
   50400    1175.9075   -3898.0795    -4092.485    818.06779    114.58249    856.60856    1483.0123    16.643641    16.643641    83.220861 
   50500    1217.2144   -3896.5912   -4097.8256   -123.73051   -433.82853    461.49414   -398.85715    16.643641    16.643641    83.222058 
   50600    1212.8127   -3895.1691   -4095.6758    384.80098    199.89939   -179.59778    1134.1013    16.643641    16.643641    83.223155 
   50700    1231.3416   -3893.7535   -4097.3235    85.827352   -237.86165    395.22463    100.11908    16.643641    16.643641    83.224846 
   50800      1219.46   -3892.2677   -4093.8734    347.69386   -487.32974   -870.88917    2401.3005    16.643641    16.643641    83.226966 
   50900    1234.1087   -3890.7167   -4094.7441    637.65102    397.00084    947.29776    568.65445    16.643641    16.643641    83.229774 
   51000    1224.1169   -3889.1671   -4091.5427    1102.6688   -356.52804    1215.4267    2449.1077    16.643641    16.643641    83.233188 
   51100    1219.0104   -3887.5845   -4089.1158    1638.4128    856.96503     1144.996    2913.2773    16.643641    16.643641    83.237843 
   51200    1246.6241   -3885.9647   -4092.0613    1246.0885   -1126.5223    3297.9978    1566.7902    16.643641    16.643641    83.243769 
   51300    1199.3169   -3884.3599   -4082.6355    2485.3022    743.33396    2992.4222    3720.1505    16.643641    16.643641    83.250976 
   51400     1249.493   -3882.7122    -4089.283     1783.038    660.39114    2923.5098    1765.2129    16.643641    16.643641    83.259608 
   51500    1238.7844   -3881.0938   -4085.8942    2173.6707    1183.7248    2651.0739    2686.2135    16.643641    16.643641    83.269311 
   51600    1261.3171   -3879.4508   -4087.9764    1806.3785     338.2789     2380.939    2699.9174    16.643641    16.643641    83.280308 
   51700    1276.8889   -3877.8281   -4088.9281    1716.5598   -442.65361    2673.9901    2918.3429    16.643641    16.643641    83.292915 
   51800     1249.701    -3876.184   -4082.7892    2540.9102    1731.1383    4099.2981    1792.2941    16.643641    16.643641    83.306984 
   51900    1223.6999   -3874.5583   -4076.8649    3413.4759    3773.3446    2358.3513    4108.7316    16.643641    16.643641    83.322121 
   52000    1248.4487   -3872.9035   -4079.3017    2920.1251    2765.8148    3271.5241    2723.0363    16.643641    16.643641    83.338872 
   52100    1271.2171    -3871.238   -4081.4003    2768.1579    2796.5759    2563.2488     2944.649    16.643641    16.643641    83.356999 
   52200    1281.1409   -3869.5795   -4081.3824    2732.6212    2434.9571    3067.8767    2695.0296    16.643641    16.643641    83.376426 
   52300    1244.7009   -3867.9123   -4073.6909    3609.5587     3787.881    4382.8471     2657.948    16.643641    16.643641    83.397037 
   52400    1280.5236   -3866.2653   -4077.9662    2653.9665     2087.108    4862.9781    1011.8134    16.643641    16.643641    83.418966 
   52500    1284.3046   -3864.5695   -4076.8955    3305.2752     3638.892    2793.6667    3483.2671    16.643641    16.643641    83.441791 
   52600    1273.9787   -3862.9065   -4073.5254    3336.6951     3174.124    3767.5483     3068.413    16.643641    16.643641    83.466137 
   52700    1279.1479   -3861.2284   -4072.7019    3302.4107    998.31726    3295.0587    5613.8561    16.643641    16.643641    83.492013 
   52800    1281.3005   -3859.5623   -4071.3917    3479.5804    3620.1711    2418.4054    4400.1647    16.643641    16.643641    83.520064 
   52900    1270.5401   -3857.8983   -4067.9487    3836.2171    2636.0496    3190.3629    5682.2387    16.643641    16.643641     83.55011 
   53000    1300.6654   -3856.2203   -4071.2512    3197.0043    1949.9284     2884.388    4756.6964    16.643641    16.643641    83.582283 
   53100    1295.6946   -3854.5518   -4068.7608    3203.8833    2039.6457     4502.049    3069.9552    16.643641    16.643641    83.616138 
   53200    1281.0442   -3852.8501   -4064.6371    3844.0742    1888.7736    5592.0251    4051.4239    16.643641    16.643641    83.651287 
   53300    1310.2532   -3851.1769   -4067.7929    2747.7452    2684.2728    3806.2448    1752.7181    16.643641    16.643641    83.687616 
   53400    1262.9973   -3849.4789   -4058.2823    4018.7224    2694.0781    6225.5724    3136.5167    16.643641    16.643641    83.724476 
   53500    1266.6002   -3847.8433   -4057.2424    4075.7477    3054.7623    4273.0823    4899.3985    16.643641    16.643641    83.762159 
   53600    1265.5683   -3846.1948   -4055.4233    4320.0528    4521.0608    4076.7335    4362.3642    16.643641    16.643641    83.801376 
   53700    1282.1055   -3844.5415    -4056.504    3943.1666    2772.8967    5049.9531    4006.6499    16.643641    16.643641    83.842505 
   53800    1269.8518   -3842.8862   -4052.8228    4060.1473    2598.3594    5288.9665     4293.116    16.643641    16.643641    83.885214 
   53900    1264.9676    -3841.227   -4050.3562     3889.243    4251.4817    5650.0977    1766.1497    16.643641    16.643641    83.929281 
   54000    1266.6973   -3839.5667   -4048.9819    4326.5974    4260.7805    5241.7303    3477.2812    16.643641    16.643641    83.973697 
   54100    1271.3984   -3837.9297    -4048.122    4284.8961    4346.6947    4698.1578    3809.8358    16.643641    16.643641    84.019277 
   54200    1280.6421   -3836.2643   -4047.9848    3824.2802    3577.0059    4466.5623    3429.2724    16.643641    16.643641    84.066279 
   54300    1259.7241   -3834.5959   -4042.8582    4546.6208    2667.6949    6280.7967    4691.3707    16.643641    16.643641    84.114521 
   54400    1256.1615   -3832.9253   -4040.5986    4311.7207    5929.1673    3365.1348      3640.86    16.643641    16.643641    84.163913 
   54500     1259.889   -3831.2797   -4039.5692    4286.9349    3579.3459    5557.2674    3724.1916    16.643641    16.643641    84.214128 
   54600    1277.5965   -3829.6274   -4040.8444    3944.7166    5910.6036     4474.548    1448.9982    16.643641    16.643641    84.265169 
   54700    1274.1424   -3827.9639   -4038.6099    4141.5664    4746.2161    5268.1908    2410.2923    16.643641    16.643641    84.316363 
[...]
  336300     1047.791   -3863.9592    -4037.184    1368.1894    4995.7976   -2566.3612    1675.1317    17.207235    17.207235    79.108895 
  336400    1056.1288   -3863.9498    -4038.553      566.139    1872.8566   -359.98973    185.55015    17.207275    17.207275    79.104479 
  336500    1031.4836   -3863.9486   -4034.4773    885.12327    1038.1028    2631.6428   -1014.3759    17.207481    17.207481    79.125015 
  336600    1051.1397   -3863.9792   -4037.7576    707.14143     1995.906    1677.7836   -1552.2653    17.207909    17.207909    79.032228 
  336700    1068.5456   -3863.9608   -4040.6167    1135.8891   -307.82231    389.02873    3326.4608    17.208589    17.208589    78.927502 
  336800    1079.2815   -3863.9975   -4042.4283    1055.5837   -617.91528     3103.682    680.98449    17.209426    17.209426    79.050731 
  336900    1060.7838   -3864.0184   -4039.3912   -1276.7838   -3390.3803    723.78878   -1163.7599    17.210262    17.210262     79.24889 
  337000    1029.7497   -3863.9858   -4034.2279   -1411.2142   -3021.8459   -1744.4684    532.67174    17.210766    17.210766     79.38178 
  337100    1020.8448   -3863.9899   -4032.7598    -1530.064    -3018.894    775.94716   -2347.2452    17.210856    17.210856    79.399939 
  337200    1020.2693   -3864.0041   -4032.6789   -1183.6567   -2541.6845     -121.451   -887.83457     17.21062     17.21062    79.295646 
  337300      1065.11   -3864.0029   -4040.0909   -782.17821   -1697.2102   -232.35401   -416.97045    17.210128    17.210128    79.184727 
  337400    1036.9041   -3864.0092    -4035.434    793.33696     2207.618   -1412.4208    1584.8137    17.209583    17.209583    79.067121 
  337500    1045.2738   -3863.9996   -4036.8081    1466.4849   -471.50768    3046.8482    1824.1143    17.209218    17.209218    79.024651 
  337600    1063.1057   -3864.0189   -4039.7755    229.08165    1009.2977   -328.02804    5.9753284    17.209056    17.209056    79.111155 
  337700     1044.018   -3864.0331   -4036.6341   -83.113113    374.90023   -226.10038   -398.13919    17.208994    17.208994    79.245961 
  337800    1030.7276   -3864.0277   -4034.4314   -863.45761   -1501.6787   -1689.6917    600.99753    17.208879    17.208879     79.38129 
  337900    1052.8038   -3864.0174   -4038.0708   -1924.3824   -963.77017   -2976.8926   -1832.4844    17.208479    17.208479    79.464005 
  338000    1043.1361   -3864.0457   -4036.5009   -1057.7241   -2005.9701   -1457.8397    290.63765    17.207843    17.207843    79.379305 
  338100    1046.7738    -3864.027   -4037.0835   -95.830084   -2010.6484    609.12241    1114.0357    17.207017    17.207017    79.278733 
  338200    1052.0136   -3864.0481   -4037.9709    237.09663   -501.35217    1732.6453   -520.00325     17.20617     17.20617    79.211297 
  338300    1062.9159   -3864.0495   -4039.7747    405.62063    213.48196    2264.5077   -1261.1278    17.205527    17.205527    79.085487 
  338400    1089.0319   -3864.0611    -4044.104    839.65614     1687.773    349.04638    482.14906    17.205205    17.205205    78.936651 
  338500    1095.9048   -3864.0501   -4045.2291    1969.9877    1759.1707    4803.2899   -652.49752    17.205318    17.205318    78.861758 
  338600    1062.7328   -3864.0676   -4039.7625    2549.9926    2997.2369    1526.9205    3125.8204    17.205953    17.205953     78.87594 
  338700    1059.6014   -3864.1322   -4039.3094    370.88427    2109.2718   -831.06033   -165.55871    17.206827    17.206827    79.086652 
  338800    1068.7906   -3864.1038   -4040.8003   -1116.9149   -1884.5735   -936.43497   -529.73633    17.207733    17.207733     79.28551 
  338900     1055.437   -3864.0858   -4038.5746   -2472.0552    244.63972   -3878.1052   -3782.7001      17.2084      17.2084    79.426013 
  339000    1031.2043   -3864.1264   -4034.6089   -1354.1318    -90.93822   -1494.4034   -2477.0538    17.208609    17.208609    79.351137 
  339100    1041.6429   -3864.1587    -4036.367    276.60686   -935.15899    123.72551    1641.2541    17.208547    17.208547    79.107438 
  339200    1091.9411   -3864.1224   -4044.6462    164.09406    -787.5505    3351.8184   -2071.9857    17.208474    17.208474    78.999413 
  339300    1076.8035   -3864.1184   -4042.1396    975.64226    738.39548     969.7383     1218.793    17.208601    17.208601    78.905385 
  339400    1052.4623   -3864.1638   -4038.1608    1080.5631    1209.0211   -639.09456    2671.7628    17.208831    17.208831    78.981093 
  339500    1054.2587   -3864.2254   -4038.5194   -1227.5489   -714.81399   -904.68293   -2063.1499    17.209022    17.209022    79.270423 
  339600    1038.0866   -3864.2352   -4035.8555   -2019.2567   -2575.6277   -2714.9064   -767.23607    17.209016    17.209016    79.521208 
  339700    1024.4767   -3864.1839   -4033.5542   -2681.4599   -2634.5833   -3200.5342   -2209.2622    17.208519    17.208519    79.656393 
  339800    1009.5794   -3864.2349   -4031.1423   -2021.1586   -2868.8594   -3325.1248    130.50845    17.207506    17.207506    79.555577 
  339900    1030.5078   -3864.2227   -4034.5901   -766.79638   -1714.2973   -2278.6812    1692.5894    17.205968    17.205968     79.39539 
  340000    1066.8178   -3864.2268   -4040.5971   -1746.6769   -2044.9685   -4042.3761     847.3138    17.204172    17.204172    79.363294 
  340100    1050.1668   -3864.2289   -4037.8464   -1398.4075   -2796.8342   -1505.0936    106.70523    17.202241    17.202241    79.369685 
  340200    1075.3203   -3864.2521   -4042.0281   -2202.0132   -2901.2209   -4286.1673    581.34863    17.200211    17.200211    79.401221 
  340300    1050.9807   -3864.2606   -4038.0127   -1995.6953   -231.52913   -5884.2404     128.6835    17.198045    17.198045    79.497735 
  340400    1034.3523   -3864.2814   -4035.2844   -2226.4754   -3002.2132   -3222.5105   -454.70228    17.195734    17.195734    79.612728 
  340500    1047.2913   -3864.3036   -4037.4457   -2546.4244    -3466.247   -2223.9717   -1949.0544    17.193273    17.193273    79.607928 
  340600    1027.2722   -3864.3333   -4034.1658    -299.0582   -899.02768   -1161.8588    1163.7119    17.190734    17.190734    79.433853 
  340700    1065.1776   -3864.3312   -4040.4303    341.47688    1357.0193     658.8376   -991.42624    17.188406    17.188406    79.297811 
  340800    1033.0074   -3864.3172   -4035.0978    1862.3646    1143.6376    2703.2908    1740.1653     17.18662     17.18662    79.175354 
  340900    1086.1084   -3864.3277   -4043.8872    402.35476   -634.53067   -664.61195    2506.2069    17.185355    17.185355    79.187168 
  341000    1047.4908   -3864.3399    -4037.515    607.27251     396.3726     1776.346   -350.90105    17.184342    17.184342    79.357927 
  341100    1084.7002   -3864.3438   -4043.6704   -1640.8082   -3062.8874   -570.67547   -1288.8618    17.183524    17.183524     79.49389 
  341200    1057.2621   -3864.3896   -4039.1801   -1680.8087   -1928.9198   -2023.0029   -1090.5033    17.182533    17.182533    79.654249 
  341300    1025.5429   -3864.3723   -4033.9189   -1463.9309   -863.73303   -778.77271   -2749.2869     17.18141     17.18141    79.696183 
  341400    1058.3286   -3864.4569   -4039.4237   -846.66987   -1427.0843   -949.45815   -163.46713     17.18029     17.18029    79.459532 
  341500    1043.5163   -3864.4056   -4036.9236     1377.553    1277.1403    1435.7107    1419.8079    17.179139    17.179139    79.249479 
  341600    1072.0597   -3864.3953   -4041.6322     1836.424    3272.0309    492.49276    1744.7485    17.178332    17.178332    79.194953 
  341700    1095.3126   -3864.4334   -4045.5146    596.50195   -2262.4756    2413.4734     1638.508    17.177992    17.177992    79.294385 
  341800    1064.0944   -3864.4907   -4040.4107   -545.09236   -997.45138    -245.5524   -392.27329    17.177771    17.177771    79.522215 
  341900     1047.355   -3864.4489   -4037.6015   -1693.0021   -904.34253   -2531.6816   -1642.9823    17.177444    17.177444    79.720224 
  342000    1045.1635   -3864.4365   -4037.2268   -2020.2697   -3445.7736   -3005.5288     390.4933    17.176819    17.176819    79.775464 
  342100      1039.38   -3864.4419   -4036.2761   -2277.7383   -2608.4165   -3050.7917   -1174.0066    17.175748    17.175748    79.809524 
  342200    1023.6432   -3864.4455    -4033.678   -1429.5504   -668.98749    -5835.851    2216.1872    17.174305    17.174305    79.782536 
  342300    1047.9224   -3864.4636     -4037.71   -1732.8115   -1347.2436   -2228.6055   -1622.5853    17.172575    17.172575    79.762651 
  342400    1025.3828   -3864.5233   -4034.0434   -123.93617    960.05484    983.15967    -2315.023    17.170835    17.170835    79.607752 
  342500    1075.9684   -3864.5288   -4042.4119    531.67392   -97.748438    244.65403    1448.1162    17.169434    17.169434    79.345601 
  342600    1071.6511   -3864.4954   -4041.6647      2324.68    2204.0565    2033.5973    2736.3863    17.168458    17.168458    79.222295 
  342700    1034.4983   -3864.5106   -4035.5377    2779.6175    2227.4725    4298.8941    1812.4859    17.168074    17.168074    79.277714 
  342800    1097.6227   -3864.5352   -4045.9983   -255.52234   -568.22117     -500.292    301.94616    17.168175    17.168175    79.432008 
  342900    1073.4556     -3864.53   -4041.9976   -1988.0332   -1722.6126    -1614.861   -2626.6259     17.16831     17.16831     79.60367 
  343000     1058.549   -3864.5126   -4039.5158   -827.17362   -1478.0687   -2437.2722    1433.8201    17.168234    17.168234    79.634688 
  343100    1042.4965   -3864.5141   -4036.8635   -1241.0566   -1428.8486   -781.20349   -1513.1178     17.16794     17.16794    79.655595 
  343200    1013.3948   -3864.5487   -4032.0869    470.16784    1082.1656   -633.45303      961.791    17.167565    17.167565     79.54697 
  343300    1043.8281   -3864.5254   -4037.0949    1218.4684    2936.8316    -1399.421    2117.9946    17.167245    17.167245    79.434134 
  343400    1027.5326   -3864.5267   -4034.4022    1271.0394    673.39228    1707.2454    1432.4804    17.167132    17.167132    79.469706 
  343500    1041.9267    -3864.526   -4036.7812    98.891626    962.79479    634.96283   -1301.0827    17.167204    17.167204    79.554718 
  343600    1039.6456   -3864.5303   -4036.4084    5.9326749    526.26731   -1313.1217    804.65241    17.167394    17.167394    79.553015 
  343700    1074.9252    -3864.533   -4042.2437   -1234.8834   -359.86399   -2440.6828   -904.10331    17.167581    17.167581    79.609614 
  343800    1055.2772   -3864.5292   -4038.9916   -1321.9654   -2123.6565    77.439036   -1919.6787     17.16768     17.16768    79.655765 
  343900    1043.4702   -3864.5305   -4037.0408   -247.81895   -588.12024   -1730.0869    1574.7502    17.167591    17.167591    79.616931 
  344000    1008.7486   -3864.5288   -4031.2989    379.52564   -1830.1451    2300.9864    667.73565    17.167367    17.167367    79.628589 
  344100    1050.7996   -3864.5306   -4038.2527   -1135.5282   -4010.9511    520.12942    84.237142    17.167083    17.167083    79.633107 
  344200    1046.0137   -3864.5456   -4037.4764   -84.669394    198.73439    214.55062   -667.29319    17.166709    17.166709    79.570005 
  344300    1040.4036   -3864.5663   -4036.5697    1530.2231    2238.4088    2549.4831   -197.22268    17.166405    17.166405    79.419276 
  344400    1065.9107   -3864.5482   -4040.7685    1787.3688    2008.6869    2475.0593    878.36037    17.166364    17.166364    79.302531 
  344500    1079.5238   -3864.5472    -4043.018    795.79418   -272.25208    2409.3877    250.24688    17.166686    17.166686    79.317793 
  344600    1057.6888   -3864.5609   -4039.4219    789.74869     3112.273   -737.70608   -5.3208363    17.167213    17.167213    79.401445 
  344700    1073.7014   -3864.5982   -4042.1065   -974.38573   -44.728699   -4029.4325    1151.0041    17.167827    17.167827    79.551302 
  344800    1051.6866   -3864.5643    -4038.433   -1087.8071   -303.22084   -1234.5182   -1725.6824    17.168184    17.168184    79.693258 
  344900    1043.6822   -3864.5865   -4037.1319   -756.82254    39.410977    550.35626   -2860.2349    17.168443    17.168443    79.651228 
  345000    1034.0959   -3864.6326   -4035.5932    1320.5771    2788.6918    1306.9101   -133.87055    17.168682    17.168682    79.440172 
  345100     1059.941   -3864.6046    -4039.838    1908.3658   -76.779039    2956.6791    2845.1973    17.169179    17.169179    79.239288 
  345200     1091.356   -3864.6234   -4045.0504    701.29464    -1155.172    1357.3908    1901.6651    17.169845    17.169845    79.261694 
  345300    1042.4575   -3864.6761    -4037.019    720.51376    682.68012    310.53828    1168.3229     17.17056     17.17056    79.463664 
  345400    1071.4346   -3864.6324   -4041.7659   -1837.1182   -1521.4272   -1908.5803   -2081.3472    17.171243    17.171243    79.658414 
  345500    1041.0663    -3864.625   -4036.7379   -1116.0135   -2163.0693    383.29921   -1568.2704    17.171651    17.171651    79.697228 
  345600    1045.7154   -3864.6497   -4037.5313   -516.00305    893.06047   -390.78716   -2050.2825    17.171849    17.171849    79.631563 
  345700    1034.4848   -3864.6664   -4035.6912    900.99146    60.500045    1223.2832    1419.1912    17.171999    17.171999    79.433555 
  345800    1085.8471   -3864.6502   -4044.1665    564.18596   -830.77758    1434.2627    1089.0728    17.172197    17.172197    79.318113 
  345900    1058.7807   -3864.6501   -4039.6917    671.31958    1169.4171    828.45422    16.087395    17.172553    17.172553    79.324353 
  346000    1075.9587   -3864.6518   -4042.5333     667.8609    2368.3988    1019.8743   -1384.6903     17.17313     17.17313    79.343506 
  346100    1045.3502   -3864.6515   -4037.4727    1187.4356   -2030.8749    4028.6779    1564.5039    17.173902    17.173902    79.341024 
  346200    1030.9078    -3864.675   -4035.1085    822.24989    1147.2037     276.4791    1043.0669     17.17468     17.17468    79.436683 
  346300    1032.9993   -3864.6767    -4035.456    -965.5362   -1679.2251   -806.27159   -411.11188    17.175341    17.175341    79.579046 
  346400      1035.26   -3864.6786   -4035.8317    -1185.999   -1993.3867    157.30219   -1721.9125    17.175698    17.175698    79.576826 
  346500    1050.8862    -3864.708   -4038.4444    156.51039   -1329.5383    2172.7687   -373.69914    17.175846    17.175846    79.399486 
  346600    1057.2525    -3864.683   -4039.4719    1012.2098      202.775    872.81989    1961.0346     17.17599     17.17599    79.253423 
  346700    1032.3833    -3864.702   -4035.3794    1741.3351     3080.208     1844.589    299.20839    17.176265    17.176265     79.31106 
  346800    1043.4806   -3864.6936   -4037.2057   -529.65726    616.07742    -676.3768   -1528.6724    17.176868    17.176868    79.428454 
  346900     1040.329   -3864.6908   -4036.6819    246.76266    1665.0245   -996.90635    72.169813    17.177503    17.177503    79.447153 
  347000    1077.2732   -3864.6912     -4042.79   -825.89611    822.91053   -2731.3741   -569.22474    17.178049    17.178049    79.451383 
  347100    1062.9482    -3864.698   -4040.4286   -500.95151   -1125.7767   -1574.0225    1196.9447    17.178412    17.178412     79.48152 
  347200      1032.86   -3864.7114   -4035.4676   -393.67485    200.85438   -1413.6569    31.777993    17.178632    17.178632    79.594591 
  347300    1046.4215   -3864.7005   -4037.6988   -2144.3898    -3419.793   -3104.0694    90.693113    17.178655    17.178655    79.689495 
  347400    1056.8585   -3864.7075   -4039.4313   -2080.6789   -4299.8975   -2508.2406    566.10152     17.17821     17.17821    79.735984 
  347500    1032.9994   -3864.7207      -4035.5   -2201.9404     -2099.85    477.43798   -4983.4092    17.177361    17.177361    79.761316 
  347600    1030.8228   -3864.8099   -4035.2294    427.95547   -1690.5858    3189.0522   -214.59999    17.176412    17.176412    79.495803 
  347700    1056.4048   -3864.7656   -4039.4144    1054.3308    1003.0469     689.3599    1470.5858    17.175652    17.175652    79.265016 
  347800    1067.5969   -3864.7518   -4041.2509     1860.699    2887.8072   -68.172171     2762.462    17.175121    17.175121     79.17846 
  347900    1034.9863   -3864.7832    -4035.891    1867.4516    2899.8308    2412.0047    290.51939    17.174922    17.174922    79.305951 
  348000    1044.7639   -3864.7815   -4037.5058   -287.63252   -1042.2272    1450.0418   -1270.7122    17.175112    17.175112    79.480194 
  348100     1031.565   -3864.7732   -4035.3154    80.123904    2195.0133    1496.8396   -3451.4812    17.175436    17.175436    79.535524 
  348200    1017.0191   -3864.7947   -4032.9321    933.26882   -3040.1669    4488.3693     1351.604    17.175888    17.175888    79.391089 
  348300    1045.3836   -3864.7829   -4037.6096    777.93535     -551.085    2816.0688    68.822191    17.176359    17.176359     79.30303 
  348400    1026.9782   -3864.7811    -4034.565     1109.045    1479.6092    663.64402    1183.8817    17.176993    17.176993    79.292655 
  348500    1078.3545   -3864.7852   -4043.0628   -109.78681     2064.956   -413.74567   -1980.5707    17.177794    17.177794    79.332766 
  348600    1045.8888    -3864.787   -4037.6973    1050.2229    2960.7139    894.92626   -704.97131    17.178721    17.178721    79.294729 
  348700    1051.2221   -3864.7904   -4038.5824     1585.491    -196.3422    2267.4992    2685.3159    17.179807    17.179807    79.256048 
  348800    1056.1996   -3864.7984   -4039.4133    614.00935    2189.8307    307.85644   -655.65906    17.181013    17.181013    79.318938 
  348900    1064.3832   -3864.7961   -4040.7639   -170.16324    1071.5052   -383.64281   -1198.3521    17.182247    17.182247    79.371268 
  349000    1072.2325   -3864.7966    -4042.062   -623.39977    496.80036   -548.70336   -1818.2963    17.183361    17.183361    79.384895 
  349100    1009.7889   -3864.7972   -4031.7393    1587.6308    1035.0614    2066.5661    1661.2651    17.184319    17.184319    79.332177 
  349200    1060.7884   -3864.7983   -4040.1718    735.59207    275.05441   -646.57281    2578.2946    17.185261    17.185261    79.296668 
  349300    1073.4508   -3864.8147   -4042.2816   -672.56543   -40.825092     -2131.83    154.95882    17.186117    17.186117    79.360336 
  349400    1058.8653    -3864.808   -4039.8636   -1309.7335   -1406.9804   -1796.6828   -725.53752    17.186842    17.186842    79.449822 
  349500    1043.5667    -3864.804   -4037.3303   -1079.8419   -1892.1867   -481.37849   -865.96043    17.187368    17.187368     79.47957 
  349600    1047.1102   -3864.8101   -4037.9223   -941.16494    -1736.673   -1643.8112    556.98945    17.187623    17.187623    79.500797 
  349700    1022.1087   -3864.8168   -4033.7956   -1163.0318   -3107.6083   -1703.5036    1322.0167    17.187555    17.187555     79.61043 
  349800    1030.4048   -3864.8168   -4035.1672   -2698.5033   -4398.2204    -1709.277   -1988.0124    17.187074    17.187074    79.734968 
  349900    1033.0109    -3864.831   -4035.6122   -1993.8102   -3259.5384   -321.41479   -2400.4775    17.186073    17.186073    79.714197 
  350000     1053.432   -3864.8786   -4039.0359   -2228.1324   -2035.0601   -2459.6466   -2189.6904    17.184791    17.184791     79.56282 
Loop time of 913.338 on 1 procs for 200000 steps with 1280 atoms

Pair  time (%) = 812.013 (88.9061)
Neigh time (%) = 68.6007 (7.51099)
Comm  time (%) = 11.9275 (1.30592)
Outpt time (%) = 0.450532 (0.049328)
Other time (%) = 20.3459 (2.22764)

Nlocal:    1280 ave 1280 max 1280 min
Histogram: 1 0 0 0 0 0 0 0 0 0
Nghost:    3543 ave 3543 max 3543 min
Histogram: 1 0 0 0 0 0 0 0 0 0
Neighs:    44180 ave 44180 max 44180 min
Histogram: 1 0 0 0 0 0 0 0 0 0

Total # of neighbors = 44180
Ave neighs/atom = 34.5156
Neighbor list builds = 20000
Dangerous builds = 0
unfix		4
