LAMMPS (13 Jan 2014)
dimension       3
boundary        p p p
units           metal

atom_style	atomic
neighbor	0.3 bin
neigh_modify	every 10 delay 0 check no

# Number of steps for the equilibration steps
variable        eqsteps equal 50000

# Number of steps to run our NPH simulation
variable        simsteps equal 200000

# Our trial melting temperature
variable	T equal 1200.0
variable	T2 equal 2*${T}
variable	T2 equal 2*1200

# Some high temperature to melt the crystal
variable	Tmelt equal 2000.0

#System size
variable	nx equal 10
variable	ny equal 10
variable	nz equal 20
variable	nzhalf equal ${nz}*0.5
variable	nzhalf equal 20*0.5
variable	a equal 4.050
variable	length equal ${nz}*${a}
variable	length equal 20*${a}
variable	length equal 20*4.05

lattice		fcc ${a}
lattice		fcc 4.05
Lattice spacing in x,y,z = 4.05 4.05 4.05

region         box block 0 ${nx} 0 ${ny} 0 ${nz}
region         box block 0 10 0 ${ny} 0 ${nz}
region         box block 0 10 0 10 0 ${nz}
region         box block 0 10 0 10 0 20
create_box     1 box
Created orthogonal box = (0 0 0) to (40.5 40.5 81)
  1 by 1 by 1 MPI processor grid
create_atoms   1 box
Created 8000 atoms

mass		1 26.9815

pair_style	eam/alloy
pair_coeff	* * Al_potential.alloy Al

velocity	all create ${T2} 1337
velocity	all create 2400 1337

# Create a dump file. This can be visualized with
# e.g. OVITO (http://www.ovito.org/)
dump		id all atom 1000 atomsdump

# 1 fs timestep
timestep	0.001
thermo_style	custom step temp etotal pe press pxx pyy pzz lx ly lz

# output every 100th timestep
thermo		100

# Equilibration the whole system to the trial melting temperature
fix		1 all npt temp ${T} ${T} 1 iso 0 0 3 drag 1.0
fix		1 all npt temp 1200 ${T} 1 iso 0 0 3 drag 1.0
fix		1 all npt temp 1200 1200 1 iso 0 0 3 drag 1.0
run		${eqsteps}
run		50000
Memory usage per processor = 5.95314 Mbytes
Step Temp TotEng PotEng Press Pxx Pyy Pzz Lx Ly Lz 
       0         2400   -24695.767   -27177.252    15885.927    15704.632    15685.878    16267.271         40.5         40.5           81 
     100     1128.592   -24722.357   -25889.267    40620.024    40988.265    40803.162    40068.646    40.591274    40.591274    81.182548 
     200    1129.3505   -24767.189   -25934.883    27690.909    28542.021    27616.868    26913.838    40.812274    40.812274    81.624548 
     300    1103.7185   -24791.679    -25932.87    18052.093    18342.422    17649.656    18164.202    40.998963    40.998963    81.997926 
     400    1093.5346   -24801.317   -25931.979    11050.543    11538.935    10715.597    10897.099    41.141065    41.141065    82.282131 
     500    1071.0366    -24803.04    -25910.44    5749.0539    5641.3445    5379.2419    6226.5753    41.259187    41.259187    82.518374 
     600     1056.973   -24800.204   -25893.063    1973.1809    2202.3633    2172.2218    1544.9577     41.35062     41.35062    82.701239 
     700    1065.2416   -24794.947   -25896.356   -1196.2215   -1614.3683   -862.95339   -1111.3429    41.413724    41.413724    82.827448 
     800    1061.4923    -24789.19   -25886.722   -2647.4104   -2471.2146   -2784.6417   -2686.3748    41.450205    41.450205     82.90041 
     900    1051.4472   -24783.818   -25870.964   -2955.1039   -3135.3152   -3601.2053   -2128.7912    41.464793    41.464793    82.929586 
    1000    1068.2375   -24778.782   -25883.288   -2900.3759   -3352.1318   -2648.1657   -2700.8302    41.462897    41.462897    82.925794 
    1100    1057.2091   -24773.997     -25867.1    -1943.844   -2006.3716   -1971.3308   -1853.8296    41.449575    41.449575     82.89915 
    1200    1074.0583   -24769.158   -25879.682    -1320.755   -1756.6779   -618.20298   -1587.3842    41.430311    41.430311    82.860623 
    1300    1080.5389   -24764.203   -25881.428   -377.27986    -282.3553   -714.00204   -135.48225    41.409957    41.409957    82.819915 
    1400    1083.2851   -24759.097   -25879.162    563.85981    471.11431     513.8683    706.59683     41.39294     41.39294     82.78588 
    1500    1083.2897   -24753.977   -25874.047    1173.9121    1620.8509    1336.1865    564.69902     41.38225     41.38225    82.764499 
    1600    1080.9978   -24748.875   -25866.574    1461.1815    1678.7002    1381.3366    1323.5078    41.378998    41.378998    82.757996 
    1700    1081.4626   -24743.896   -25862.077     1580.719    1872.3168    763.35812    2106.4822    41.382782    41.382782    82.765563 
    1800         1091   -24738.957   -25866.998    994.35087    634.05275    795.29065    1553.7092    41.392378    41.392378    82.784756 
    1900    1098.8317   -24734.096   -25870.235    358.88819    122.21675    -253.7333    1208.1811    41.405134    41.405134    82.810268 
    2000    1105.7179   -24729.287   -25872.547   -225.67617   -455.47494   -20.852817   -200.70075    41.418347    41.418347    82.836693 
    2100    1093.4723   -24724.452   -25855.049   -323.55175   -130.10374   -232.92552   -607.62599    41.429946    41.429946    82.859893 
    2200    1100.8806   -24719.595   -25857.852   -827.99765   -737.17442    -502.4137   -1244.4048    41.438993    41.438993    82.877985 
    2300    1085.3821   -24714.722   -25836.954   -544.67511   -791.78655   -202.67166   -639.56712    41.444574    41.444574    82.889147 
    2400    1102.4774   -24709.875   -25849.783   -844.08412   -330.19246   -1447.1534   -754.90652    41.446247    41.446247    82.892494 
    2500    1100.8258   -24705.123   -25843.324   -679.63713   -320.06129   -627.22125   -1091.6288    41.444691    41.444691    82.889381 
    2600    1094.5222   -24700.405   -25832.088   -99.539204    -330.1653    288.45508   -256.90739    41.441385    41.441385     82.88277 
    2700    1103.3513   -24695.754   -25836.566    47.717383    690.73332   -256.74535   -290.83582    41.437017    41.437017    82.874034 
    2800    1087.9754   -24691.205   -25816.119    772.39674    813.03645    1020.4518    483.70201     41.43288     41.43288     82.86576 
    2900    1097.7896   -24686.673   -25821.734    703.57697    799.17146    760.38557    551.17388    41.431039    41.431039    82.862077 
    3000    1107.8967   -24682.187   -25827.699    508.61395     645.7279    994.01509   -113.90114    41.431403    41.431403    82.862805 
    3100    1097.4117    -24677.81   -25812.481    844.03942    532.32677    1915.0764    84.715097    41.433598    41.433598    82.867197 
    3200    1112.3299   -24673.503   -25823.598    298.73257    -90.92412    894.84857    92.273252      41.4378      41.4378    82.875601 
    3300    1120.6493   -24669.201   -25827.898    28.376018   -458.61825    926.32116   -382.57486    41.443464    41.443464    82.886927 
    3400    1102.8358   -24664.948   -25805.228    378.89165    412.90822    183.19309    540.57365    41.449214    41.449214    82.898428 
    3500    1119.1995   -24660.708   -25817.906   -299.15575    -806.7785    373.28938   -463.97813     41.45528     41.45528     82.91056 
    3600    1110.0945   -24656.431   -25804.216   -145.20684   -21.812549   -735.95149    322.14353    41.460284    41.460284    82.920567 
    3700    1118.1643   -24652.165   -25808.293   -342.45107   -442.86744    379.74081   -964.22657    41.463825    41.463825    82.927649 
    3800    1123.5963   -24648.012   -25809.757     -394.638   -534.62277    -210.1894   -439.10184    41.465707    41.465707    82.931415 
    3900    1125.7766   -24643.857   -25807.856   -375.13096   -870.52811   -9.8652843   -244.99949    41.466522    41.466522    82.933043 
    4000     1125.179   -24639.818   -25803.199   -254.18469    8.2428546   -707.93984   -62.857081    41.465745    41.465745     82.93149 
    4100    1117.1967   -24635.841   -25790.969    103.53734    492.69146    219.36611   -401.44556     41.46414     41.46414    82.928279 
    4200     1132.606   -24631.925   -25802.986   -21.156386    246.86495   -131.14267   -179.19144    41.462559    41.462559    82.925117 
    4300    1141.3643   -24628.061   -25808.177   -11.346702    197.89528    384.42475   -616.36013    41.461755    41.461755    82.923511 
    4400    1136.4613   -24624.252   -25799.298    51.490838   -319.45454    506.13356   -32.206511     41.46237     41.46237     82.92474 
    4500     1139.417   -24620.523   -25798.626    148.48902    450.03333   -223.05761    218.49133     41.46442     41.46442    82.928841 
    4600    1135.1656   -24616.835   -25790.542     245.2999    16.316494    355.83933    363.74387    41.468086    41.468086    82.936172 
    4700      1141.67   -24613.148   -25793.579   -126.03171   -516.52984    486.28181   -347.84711     41.47274     41.47274     82.94548 
    4800    1119.9506   -24609.503   -25767.478     341.7216    791.29161    540.68561   -306.81243    41.477895    41.477895     82.95579 
    4900    1136.4155   -24605.794   -25780.793    -300.3783   -532.05407   -236.63281   -132.44802    41.483355    41.483355     82.96671 
    5000    1137.5238   -24602.176   -25778.321   -207.63218    325.71479   -102.33887   -846.27247    41.487333    41.487333    82.974665 
    5100    1141.3381   -24598.564   -25778.653   -537.72001   -523.73459   -400.32625    -689.0992    41.490151    41.490151    82.980302 
    5200    1132.7134   -24595.017   -25766.188   -164.87372   -445.44849     288.3689   -337.54159    41.490942    41.490942    82.981885 
    5300    1145.5375   -24591.502   -25775.933   -346.62964   -1028.6051   -197.93949    186.65568    41.490408    41.490408    82.980816 
    5400    1154.2621   -24587.989   -25781.441   -457.35985   -945.04818   -491.96794    64.936583    41.489315    41.489315    82.978631 
    5500    1153.7009   -24584.515   -25777.386     -51.7744   -519.28935    482.67324   -118.70709    41.488044    41.488044    82.976088 
    5600    1145.5524   -24581.214    -25765.66    238.02052    22.047007    524.44761    167.56696    41.486901    41.486901    82.973802 
    5700    1143.9325   -24577.884   -25760.655    126.47597   -182.53896    255.76663    306.20022    41.487414    41.487414    82.974828 
    5800    1137.7258   -24574.612   -25750.966    668.88371    1069.7527     618.2603    318.63816    41.488686    41.488686    82.977373 
    5900     1143.585   -24571.405   -25753.816    363.54975     273.6267    448.42453    368.59802    41.491465    41.491465     82.98293 
    6000    1156.0356   -24568.262   -25763.547    60.012013   -251.86299   -362.98133    794.88037    41.495229    41.495229    82.990459 
    6100     1155.053   -24565.183   -25759.452   -44.840325   -371.93588   -304.55857    541.97348    41.499287    41.499287    82.998573 
    6200    1152.0702   -24562.147   -25753.332   -87.107661   -289.48264   -680.36248    708.52214    41.503213    41.503213    83.006426 
    6300    1171.2114   -24559.115   -25770.092   -689.98513   -721.56671   -732.61994   -615.76873    41.506559    41.506559    83.013118 
    6400    1157.3131   -24556.174   -25752.781   -139.17737    163.99749   -565.79175   -15.737838    41.508335    41.508335     83.01667 
    6500    1158.2567   -24553.274   -25750.856    -174.8082   -423.98634    86.004029   -186.44231    41.509108    41.509108    83.018216 
    6600    1154.8459   -24550.358   -25744.413    -96.22785     396.1315   -438.68243   -246.13262    41.509388    41.509388    83.018776 
    6700    1157.9889   -24547.418   -25744.723   -124.24889    605.01666   -464.75418   -513.00915    41.509657    41.509657    83.019314 
    6800    1165.3218   -24544.622   -25749.509   -174.65978    181.06461   -457.29205   -247.75188    41.509105    41.509105    83.018209 
    6900     1160.639   -24541.895    -25741.94    138.80131    685.41214   -637.13819    368.12997    41.508227    41.508227    83.016454 
    7000    1152.5867   -24539.141    -25730.86    381.08692    902.33505   -68.085098     309.0108    41.508528    41.508528    83.017057 
    7100     1163.715   -24536.397   -25739.623    56.336134    123.22741   -252.34766    298.12865    41.509787    41.509787    83.019575 
    7200    1157.7325   -24533.736   -25730.775    290.89498    677.46891   -502.46327    697.67931    41.511381    41.511381    83.022761 
    7300    1167.1041   -24531.157   -25737.887    50.256355   -143.79518   -15.819894    310.38414    41.513284    41.513284    83.026567 
    7400    1160.5662   -24528.556   -25728.525    100.22867   -365.07895    89.179158     576.5858    41.515855    41.515855     83.03171 
    7500    1173.5318   -24525.917   -25739.292   -342.68167   -560.93506    310.99602   -778.10597    41.518782    41.518782    83.037564 
    7600    1158.7205   -24523.348    -25721.41    41.843703   -55.376795   -161.13248    342.04038    41.520973    41.520973    83.041946 
    7700    1175.7814   -24520.862   -25736.563   -420.51649   -556.65595   -190.28423   -514.60928    41.522772    41.522772    83.045544 
    7800    1157.3623   -24518.393    -25715.05    219.33271    181.36985    691.19271   -214.56442    41.523786    41.523786    83.047571 
    7900    1166.7093   -24515.877   -25722.199   -68.638255    392.69455   -376.87548   -221.73384    41.525234    41.525234    83.050469 
    8000    1157.9348    -24513.29   -25710.539    239.82992    485.40503    63.604103    170.48064    41.526895    41.526895     83.05379 
    8100    1172.6432   -24510.692   -25723.149   -251.68836   -714.05229   -323.16627    282.15348    41.528789    41.528789    83.057579 
    8200    1166.9265   -24508.137   -25714.683   -336.50111   -232.32409    -405.5803   -371.59894    41.530383    41.530383    83.060766 
    8300    1161.7406   -24505.571   -25706.755     116.6392   -112.26208    33.870161     428.3095    41.531887    41.531887    83.063775 
    8400    1184.8475   -24503.076   -25728.152   -440.95504   -895.62638     537.4655   -964.70423    41.533179    41.533179    83.066358 
    8500    1172.5226   -24500.736   -25713.068   -27.331376   -230.69479   -374.07618    522.77684    41.533699    41.533699    83.067399 
    8600    1173.1442   -24498.511   -25711.486   -107.12619    104.37424   -80.928113   -344.82469    41.533934    41.533934    83.067868 
    8700    1179.7749    -24496.36   -25716.191   -83.240197    325.17645   -125.51007   -449.38697    41.533883    41.533883    83.067767 
    8800    1175.2799   -24494.304   -25709.487     40.42546    818.57169   -436.90819   -260.38712    41.533651    41.533651    83.067302 
    8900    1171.2505    -24492.29   -25703.307    154.09873    770.73013    176.24264   -484.67659     41.53369     41.53369     83.06738 
    9000    1172.8958   -24490.279   -25702.997    134.07361    799.72617   -381.90288   -15.602443    41.534284    41.534284    83.068569 
    9100    1178.6568   -24488.283   -25706.957    103.52962    393.95315   -164.69824     81.33396    41.535166    41.535166    83.070332 
    9200    1180.0549   -24486.356   -25706.476   -45.690027   -524.91832    326.81983    61.028412    41.536275    41.536275     83.07255 
    9300    1181.1557   -24484.392    -25705.65   -97.289824   -150.46356   -332.06754    190.66163    41.537744    41.537744    83.075488 
    9400    1174.3781   -24482.486   -25696.736    208.90324    565.46615    483.02205   -421.77848    41.538984    41.538984    83.077968 
    9500    1169.2712   -24480.635   -25689.605    343.40434     277.9198    1012.3437   -260.05051    41.540262    41.540262    83.080523 
    9600    1186.1029   -24478.842   -25705.215   -109.72028   -53.096476   -653.65006     377.5857    41.541468    41.541468    83.082937 
    9700      1192.01   -24477.126   -25709.607   -123.51294   -590.98615    608.15614   -387.70879    41.542428    41.542428    83.084856 
    9800    1188.6343    -24475.55   -25704.541   -97.096129   -358.01169   -60.286252    127.00956    41.542987    41.542987    83.085974 
    9900    1192.2741   -24474.057   -25706.811   -56.737711    284.47687   -116.94919   -337.74082    41.543244    41.543244    83.086488 
   10000    1178.0053    -24472.61   -25690.611    40.785094     85.45303    230.01996   -193.11771    41.543505    41.543505     83.08701 
   10100     1178.665   -24471.098   -25689.781    23.522038   -513.84984    328.30845     256.1075    41.543889    41.543889    83.087777 
   10200    1183.5731   -24469.724   -25693.481    43.694863    43.952237    588.66119   -501.52884    41.543402    41.543402    83.086804 
   10300    1190.1969   -24468.339   -25698.946    92.379413    70.740384     341.4014   -135.00355    41.543534    41.543534    83.087067 
   10400    1190.3301   -24466.946    -25697.69    151.47118     358.2501    295.08708   -198.92362     41.54446     41.54446    83.088921 
   10500    1189.6781    -24465.56    -25695.63    -62.33267   -308.05123    224.46439   -103.41117     41.54581     41.54581    83.091621 
   10600    1185.0677   -24464.161   -25689.464    67.777803   -291.05754     182.8579    311.53305    41.547416    41.547416    83.094832 
   10700    1189.4645   -24462.745   -25692.594   -160.71838    217.74087   -519.53843   -180.35759    41.549203    41.549203    83.098405 
   10800    1188.9221   -24461.369   -25690.657    -8.149185    136.98228   -112.10832   -49.321518    41.550469    41.550469    83.100937 
   10900    1180.3841   -24460.066   -25680.527    103.59303    480.40706   -992.21509    822.58713    41.550817    41.550817    83.101634 
   11000    1190.7876   -24458.715   -25689.932   -81.307197   -40.890991   -64.746302    -138.2843    41.550896    41.550896    83.101792 
   11100    1190.4697   -24457.303   -25688.191    96.619417   -356.76178     270.7418    375.87823    41.551205    41.551205    83.102411 
   11200    1189.5399    -24455.83   -25685.757    -62.90709    500.09661    -455.0434   -233.77448    41.552454    41.552454    83.104907 
   11300    1188.5362   -24454.454   -25683.343    53.793479   -241.76271   -233.69145    636.83459    41.553543    41.553543    83.107086 
   11400    1187.5085   -24453.095   -25680.921    63.002314   -294.06087    170.30359    312.76422    41.555068    41.555068    83.110136 
   11500    1206.0248    -24451.78   -25698.751   -503.55953   -778.69382   -134.85743   -597.12734     41.55673     41.55673     83.11346 
   11600     1194.949   -24450.534   -25686.053   -209.22749   -400.97128   -103.57636   -123.13482    41.557681    41.557681    83.115362 
   11700    1195.0313   -24449.395       -25685   -168.00604   -448.02459   -105.09364    49.100104    41.557742    41.557742    83.115484 
   11800    1190.9943   -24448.401   -25679.832    56.436116   -459.01253    538.77934    89.541542    41.556946    41.556946    83.113893 
   11900    1194.6264   -24447.359   -25682.545   -145.67269    800.49884   -815.35419   -422.16272    41.556472    41.556472    83.112945 
   12000    1188.1012   -24446.414   -25674.853    273.91879    218.47849   -780.89899    1384.1769     41.55559     41.55559    83.111181 
   12100    1176.7003   -24445.587   -25662.238     426.9053    227.61764     977.0357    76.062547    41.554496    41.554496    83.108991 
   12200    1199.4146   -24444.691   -25684.828    41.030452    554.34519    101.09231   -532.34614     41.55411     41.55411    83.108219 
   12300    1194.4606   -24443.834   -25678.849    58.107392   -310.82949    623.05849   -137.90682    41.554005    41.554005     83.10801 
   12400    1195.7885   -24443.032    -25679.42    60.516044   -667.09014    81.489324    767.14895    41.554388    41.554388    83.108776 
   12500    1210.9897   -24442.182   -25694.287   -288.62945   -251.92286   -554.74639     -59.2191    41.556393    41.556393    83.112786 
   12600    1194.1698   -24441.366    -25676.08    54.645185    168.07237    24.757313   -28.894133    41.559022    41.559022    83.118043 
   12700    1199.4005   -24440.499   -25680.621   -250.61939   -816.07232    25.052471    39.161679    41.562002    41.562002    83.124004 
   12800    1195.6655   -24439.645   -25675.906   -266.56055   -78.998383   -821.27269    100.58942    41.564373    41.564373    83.128745 
   12900    1212.1615   -24438.902   -25692.218   -525.43554    -688.6196    -24.96731   -862.71972    41.565357    41.565357    83.130714 
   13000    1190.3289   -24438.283   -25669.026   -116.01658   -211.92416     119.1265   -255.25207    41.564755    41.564755    83.129509 
   13100     1193.381    -24437.72   -25671.619    7.1663712    172.37023   -277.81464    126.94352    41.563122    41.563122    83.126243 
   13200     1206.493   -24437.073   -25684.529   -199.81182    246.29983   -509.92029   -335.81499    41.561864    41.561864    83.123728 
   13300    1196.0129   -24436.449   -25673.069    54.689641    8.4451472    479.05271   -323.42894    41.560772    41.560772    83.121544 
   13400     1196.374   -24435.819   -25672.813    103.69906    -8.045913    370.66881   -51.525707        41.56        41.56    83.120001 
   13500    1198.2329   -24435.165    -25674.08    127.22003    340.76441    80.846813   -39.951132    41.560219    41.560219    83.120437 
   13600    1209.5148   -24434.559   -25685.139   -250.65822   -14.405204   -369.34627    -368.2232     41.56104     41.56104     83.12208 
   13700    1206.9528   -24434.136   -25682.067   -39.334091    55.082594    -48.40016   -124.68471    41.561156    41.561156    83.122311 
   13800    1195.1451   -24433.878   -25669.601     78.24382   -1308.7585    391.52054    1151.9694    41.561127    41.561127    83.122253 
   13900    1203.0921   -24433.608   -25677.547   -59.160589   -540.07681    579.94093   -217.34588    41.561497    41.561497    83.122994 
   14000      1195.86   -24433.281   -25669.743    103.53492    8.5188683    41.929796    260.15611    41.562272    41.562272    83.124543 
   14100    1209.5452   -24432.873   -25683.485   -351.83066   -306.62725   -126.97864   -621.88608    41.563856    41.563856    83.127712 
   14200      1182.32   -24432.423   -25654.885    361.46775    189.75883    392.46572     502.1787     41.56551     41.56551    83.131019 
   14300    1194.6091   -24431.955   -25667.124   -85.555138   -67.430596   -123.67972   -65.555099    41.567124    41.567124    83.134247 
   14400    1208.7767   -24431.506   -25681.323   -462.52803   -214.53974   -642.66299   -530.38138    41.567886    41.567886    83.135771 
   14500    1195.4365   -24431.107   -25667.131   -138.00789   -89.256124   -15.678129   -309.08941    41.567408    41.567408    83.134817 
   14600    1195.8376   -24430.682   -25667.121    32.760976    173.38544   -249.41898    174.31648    41.566822    41.566822    83.133643 
   14700    1207.9605   -24430.336   -25679.309   -202.01866   -306.06424      104.797   -404.78875    41.565933    41.565933    83.131867 
   14800    1193.8501   -24430.087   -25664.471    48.584054     464.4528   -684.91625     366.2156    41.564519    41.564519    83.129039 
   14900    1195.5841   -24429.822   -25665.998    129.96603   -305.59603    564.46245    131.03167    41.563232    41.563232    83.126463 
   15000    1199.6862   -24429.592   -25670.009    151.91264    387.35347   -280.13533    348.51977    41.562099    41.562099    83.124198 
   15100    1197.9115   -24429.362   -25667.945    98.182586   -660.50292     446.5588    508.49188    41.561736    41.561736    83.123473 
   15200     1198.933   -24429.106   -25668.745    127.01114     -184.893    -52.98389    618.91032    41.562186    41.562186    83.124372 
   15300    1206.6507    -24428.89   -25676.509   -189.34444   -243.87154   -404.10853    79.946739    41.563384    41.563384    83.126768 
   15400    1200.2561   -24428.699   -25669.706   -85.442519   -136.38316   -566.16161    446.21722    41.564805    41.564805     83.12961 
   15500    1202.1412   -24428.559   -25671.515   -200.77818    5.4063044   -889.40449    281.66365    41.565756    41.565756    83.131511 
   15600    1196.9761   -24428.414    -25666.03    41.889105    488.76699   -17.822929   -345.27674    41.566233    41.566233    83.132466 
   15700     1206.345   -24428.238   -25675.541   -113.99123    144.23121    55.585053   -541.78997    41.566701    41.566701    83.133403 
   15800    1190.4992    -24428.13   -25659.049    139.70869   -15.588224     346.8429    87.871396    41.566802    41.566802    83.133604 
   15900    1205.7921   -24427.921   -25674.652   -134.45637   -293.16022   -77.797044   -32.411845    41.567364    41.567364    83.134728 
   16000    1199.4225   -24427.747   -25667.892   -91.620395   -618.34872   -411.14341    754.63095    41.567869    41.567869    83.135739 
   16100    1201.1934    -24427.54   -25669.517   -61.533671    174.84365    -503.9989    144.55424    41.568331    41.568331    83.136663 
   16200    1211.4376   -24427.415   -25679.983   -519.01891   -273.18418   -929.88681   -353.98572    41.568375    41.568375    83.136751 
   16300    1200.3152   -24427.386   -25668.454    18.209336   -188.76845    266.20619   -22.809738    41.567363    41.567363    83.134726 
   16400    1203.2493   -24427.423   -25671.525   -93.548187    754.06654   -738.11098   -296.60012    41.565953    41.565953    83.131906 
   16500    1206.2481   -24427.409   -25674.611   -22.504134     110.9088    -228.5542    50.133007    41.564794    41.564794    83.129588 
   16600    1203.4034   -24427.415   -25671.676    21.037556   -848.72635    673.33718    238.50184    41.564018    41.564018    83.128037 
   16700    1191.5037   -24427.365   -25659.322    247.02423    260.48216   -18.428291    499.01882    41.564194    41.564194    83.128387 
   16800    1200.4657   -24427.303   -25668.527   -10.762744    -442.5617    420.46584   -10.192377    41.565288    41.565288    83.130575 
   16900     1206.414   -24427.205   -25674.579   -210.53651   -403.13409   -383.70899    155.23355    41.566907    41.566907    83.133813 
   17000    1191.1589   -24427.148   -25658.749    95.372307    82.924232    343.64989    -140.4572    41.568028    41.568028    83.136057 
   17100    1205.9966   -24427.038   -25673.981   -239.03706   -886.78933    358.80017   -189.12202     41.56909     41.56909     83.13818 
   17200    1190.8353   -24426.889   -25658.155    63.327177   -486.06827    539.54412    136.50568    41.569891    41.569891    83.139783 
   17300    1207.6069    -24426.71   -25675.317   -284.78284   -541.62762    219.02298   -531.74387    41.570612    41.570612    83.141224 
   17400    1199.5128   -24426.636   -25666.875     -234.173   -236.74742   -220.71518   -245.05641     41.57052     41.57052    83.141039 
   17500    1210.9544   -24426.551    -25678.62   -456.64369   -922.79498    98.922173   -546.05828    41.569827    41.569827    83.139655 
   17600    1191.8458   -24426.626   -25658.938    203.87035    368.91883    251.66227   -8.9700462    41.567737    41.567737    83.135474 
   17700    1209.6432    -24426.81   -25677.523    46.951848   -249.88789      962.578   -571.83457    41.564915    41.564915     83.12983 
   17800    1192.4215   -24427.019   -25659.926    508.25484    200.84541    747.38686    576.53225    41.562442    41.562442    83.124884 
   17900    1204.3996   -24427.197   -25672.488    254.82921    423.46274   -22.058813     363.0837    41.561189    41.561189    83.122378 
   18000    1198.5854   -24427.426   -25666.706    273.55317     165.8967    232.77792    421.98491    41.560856    41.560856    83.121712 
   18100    1199.3693   -24427.536   -25667.626    213.34378    180.60956    33.432809    425.98899     41.56247     41.56247    83.124941 
   18200     1194.437   -24427.671   -25662.661    218.74976    53.056029    40.776271    562.41699    41.564768    41.564768    83.129536 
   18300    1199.7218   -24427.785    -25668.24   -140.78741   -225.68493   -54.592984   -142.08431    41.567309    41.567309    83.134618 
   18400    1206.8087   -24427.956   -25675.738   -234.68883   -645.61087   -290.28077    231.82516    41.568777    41.568777    83.137553 
   18500     1193.261   -24428.137   -25661.911    52.500392    192.93688    606.91167   -642.34738    41.569272    41.569272    83.138545 
   18600    1203.2892    -24428.32   -25672.463   -55.810206   -677.53338    761.34062   -251.23786    41.568713    41.568713    83.137426 
   18700    1200.8768    -24428.55   -25670.199    4.3811452   -746.09794   -17.264726    776.50611    41.567157    41.567157    83.134315 
   18800    1195.8959   -24428.732   -25665.231    -30.61502    485.61983   -268.36065   -309.10424    41.565397    41.565397    83.130795 
   18900    1203.5945   -24428.873   -25673.332   -49.551042    107.07401    531.09229   -786.81942    41.563883    41.563883    83.127765 
   19000    1194.8185   -24429.022   -25664.407    422.47628   -121.91211    591.56668    797.77427    41.562689    41.562689    83.125379 
   19100    1190.8282   -24429.142   -25660.401    320.44991    132.87893    18.735648    809.73515    41.562516    41.562516    83.125031 
   19200    1208.2967   -24429.141   -25678.461     -113.049   -127.53492   -46.164118   -165.44796    41.563779    41.563779    83.127559 
   19300    1206.3454   -24429.068   -25676.371   -169.50871    97.949411   -1000.2789    393.80336    41.565778    41.565778    83.131555 
   19400    1187.7421   -24428.937   -25657.005    182.59615    285.44545    54.805762    207.53724    41.567993    41.567993    83.135985 
   19500    1190.1771   -24428.692   -25659.278    171.32064   -3.8575541    422.06989    95.749581    41.570316    41.570316    83.140632 
   19600    1198.3092   -24428.379   -25667.373    -417.2011   -1020.3206   -40.130011   -191.15265    41.572077    41.572077    83.144154 
   19700    1196.5541   -24428.006   -25665.185   -186.79685   -448.76215     -190.865    79.236598    41.572439    41.572439    83.144878 
   19800    1194.4363   -24427.543   -25662.533   -4.3454514   -380.11689    257.29186    109.78868    41.571996    41.571996    83.143991 
   19900    1185.2228   -24426.975   -25652.439    119.64926   -131.24418    181.67395    308.51803     41.57143     41.57143    83.142861 
   20000    1195.5433   -24426.345    -25662.48   -125.36936   -374.11638   -401.95185    399.96016    41.570446    41.570446    83.140892 
   20100    1196.7284    -24425.76   -25663.119   -58.132654    536.08667     62.09992   -772.58456    41.568532    41.568532    83.137064 
   20200    1205.4313   -24425.231   -25671.589   -160.51757    63.921358   -1317.7524    772.27833    41.566117    41.566117    83.132234 
   20300    1209.9387   -24424.872   -25675.891    107.72797   -111.17361    -535.3424    969.69992    41.563416    41.563416    83.126832 
   20400    1212.7395   -24424.631   -25678.546    -45.80469   -359.51484   -426.75821    648.85898    41.561736    41.561736    83.123472 
   20500    1197.5335   -24424.518    -25662.71    299.75317    429.86959   -116.31673    585.70665    41.560838    41.560838    83.121676 
   20600    1195.8004   -24424.377   -25660.777    314.08742     251.7366   -71.028193    761.55386    41.562035    41.562035    83.124069 
   20700    1196.9338   -24424.201   -25661.773    159.65294    546.90267   -2.6162895   -65.327563    41.564566    41.564566    83.129132 
   20800    1190.8107   -24424.134   -25655.375    362.24399    272.28527    385.58459     428.8621     41.56719     41.56719     83.13438 
   20900    1202.9868   -24424.121   -25667.951   -143.24563   -208.23407   -70.693251   -150.80956    41.569677    41.569677    83.139353 
   21000     1194.282   -24424.122   -25658.952   -93.400228   -444.91564   -191.99376    356.70872    41.571625    41.571625     83.14325 
   21100    1201.3203   -24424.006   -25666.114   -248.67949   -380.85264   -629.76433    264.57851    41.573335    41.573335    83.146669 
   21200    1199.5039   -24423.834   -25664.063   -221.11807   -3.7569014   -221.87622    -437.7211    41.574493    41.574493    83.148985 
   21300    1216.1973    -24423.66   -25681.149   -572.13125   -78.284712   -1204.6965    -433.4125    41.574981    41.574981    83.149961 
   21400    1196.6828   -24423.612   -25660.925   -240.69353   -358.95239   -132.06267   -231.06551    41.573667    41.573667    83.147334 
   21500    1194.0718   -24423.561   -25658.174     9.678106    563.30944    65.711553   -599.98668    41.571271    41.571271    83.142541 
   21600     1189.615   -24423.581   -25653.585    259.69738    307.59957    394.51697    76.975602     41.56813     41.56813    83.136259 
   21700    1198.5499   -24423.622   -25662.865    192.92996    580.96208    23.583464   -25.755662    41.564962    41.564962    83.129924 
   21800    1193.5314   -24423.784   -25657.838    395.40676   -164.45472    1332.9466    17.728376    41.561956    41.561956    83.123912 
   21900    1213.2566   -24423.905   -25678.354    28.124345    419.86029    86.955304   -422.44256    41.560605    41.560605     83.12121 
   22000    1198.5573   -24424.159   -25663.409    505.68123    867.10807   -113.72283    763.65846    41.560243    41.560243    83.120486 
   22100    1211.0503   -24424.367   -25676.534    110.71283    520.51692    312.23594   -500.61435     41.56201     41.56201    83.124019 
   22200    1193.8892   -24424.688   -25659.112    210.31681   -198.51319     313.3075    516.15613    41.564649    41.564649    83.129298 
   22300    1208.7356   -24424.894   -25674.668   -169.32437   -567.10176   -311.06289    370.19156     41.56839     41.56839     83.13678 
   22400    1191.9932   -24425.139   -25657.602    20.591447    316.81757   -679.93279    424.88956    41.571952    41.571952    83.143905 
   22500    1202.7853    -24425.36   -25668.982   -307.25718   -391.00008   -65.518669    -465.2528    41.574846    41.574846    83.149693 
   22600    1177.6695   -24425.669   -25643.322    259.59145    386.52863    140.16139    252.08435    41.575667    41.575667    83.151334 
   22700    1214.0322   -24425.865   -25681.116   -770.85247   -514.01253   -814.63237   -983.91253     41.57552     41.57552     83.15104 
   22800    1197.5222    -24425.98   -25664.161   -273.46821   -31.518109   -339.73402   -449.15249     41.57366     41.57366    83.147321 
   22900    1185.5148    -24425.98   -25651.745     257.4432   -36.917138     741.8942    67.352537    41.571165    41.571165     83.14233 
   23000    1206.0987   -24425.922    -25672.97   -340.40846   -547.26529   -4.6718578   -469.28825    41.568519    41.568519    83.137037 
   23100    1200.7632   -24425.849    -25667.38    52.820236   -427.28202    951.31891   -365.57618    41.565612    41.565612    83.131225 
   23200    1202.1315   -24425.822   -25668.768    186.77473    654.26216    479.97648   -573.91446    41.562848    41.562848    83.125696 
   23300    1199.2218   -24425.844   -25665.781    186.85765     908.4439    -130.0203   -217.85065    41.560584    41.560584    83.121168 
   23400    1203.2259   -24425.859   -25669.936    221.00572    133.64285    100.24285    429.13147    41.559624    41.559624    83.119248 
   23500    1205.4088   -24425.882   -25672.216    219.60997    88.710167    308.70605    261.41368    41.560453    41.560453    83.120905 
   23600    1190.6837   -24426.009   -25657.119    580.79301    228.61437    1082.3725    431.39214    41.562227    41.562227    83.124455 
   23700    1212.3286   -24426.203   -25679.693   -138.15807   -542.62288   -135.70437    263.85304    41.564923    41.564923    83.129846 
   23800    1197.9539   -24426.366   -25664.993   -30.766678   -107.82141     133.6088   -118.08742    41.568118    41.568118    83.136236 
   23900    1212.6185   -24426.423   -25680.212   -477.65806      -786.93   -275.31486   -370.72931    41.571433    41.571433    83.142867 
   24000    1199.4863   -24426.543   -25666.754   -313.70747   -134.02325   -184.86918   -622.22998    41.573352    41.573352    83.146705 
   24100    1191.7094   -24426.578   -25658.748   -187.48339    -57.40939    476.99178   -982.03258    41.573921    41.573921    83.147843 
   24200     1199.071    -24426.47   -25666.252   -264.52205   -87.778741   -261.18106   -444.60636    41.573375    41.573375    83.146749 
   24300    1198.7806   -24426.315   -25665.796   -164.69119     278.9063   -1193.5952    420.61531    41.571641    41.571641    83.143282 
   24400    1186.1267   -24426.221   -25652.619    268.21128    1260.9751   -101.92186   -354.41945    41.568729    41.568729    83.137459 
   24500    1208.7904   -24426.088   -25675.919   -152.44688   -307.01366   -646.02233    495.69534     41.56582     41.56582    83.131641 
   24600    1195.5484   -24425.923   -25662.063    209.62344    151.95321     93.83334    383.08378    41.563381    41.563381    83.126763 
   24700    1200.8249   -24425.756   -25667.351    203.68664    790.39875    676.90013   -856.23895    41.561872    41.561872    83.123745 
   24800    1216.4446   -24425.646   -25683.391   -163.16829    67.153013   -751.43802    194.78015    41.561609    41.561609    83.123217 
   24900    1193.4739   -24425.622   -25659.616    431.88032    927.59252    251.75177    116.29666    41.562468    41.562468    83.124937 
   25000    1188.3601   -24425.632   -25654.339    320.41092    473.02799   -302.35228    790.55706    41.564383    41.564383    83.128767 
   25100    1187.3205   -24425.566   -25653.199     402.1067    548.49993    128.11431    529.70584    41.567219    41.567219    83.134438 
   25200    1204.2816   -24425.389   -25670.558   -227.91192    297.99922   -836.97999     -144.755    41.571025    41.571025    83.142051 
   25300    1202.0624   -24425.133   -25668.008   -369.68955   -55.369244   -630.79586   -422.90356    41.574547    41.574547    83.149093 
   25400    1204.6556   -24424.878   -25670.434   -345.78678   -912.77691   -524.61407    400.03062    41.576553    41.576553    83.153106 
   25500    1190.8155   -24424.692   -25655.938   -74.891128   -292.14463   -131.41296     198.8842    41.576946    41.576946    83.153891 
   25600    1194.5376   -24424.533   -25659.628    -135.1141   -132.15829    -550.8247    277.64069    41.575817    41.575817    83.151634 
   25700    1185.3154   -24424.363   -25649.922    -44.76886    322.34761   -352.13129    -104.5229    41.573456    41.573456    83.146913 
   25800    1192.0739   -24424.026   -25656.574    45.553128    14.754315   -253.87563     375.7807    41.571135    41.571135    83.142271 
   25900     1199.245   -24423.608    -25663.57   -35.929778   -169.21906    449.90854   -388.47881    41.569076    41.569076    83.138153 
   26000    1191.3832   -24423.221   -25655.054    293.66406    254.23269    128.49753    498.26196    41.566966    41.566966    83.133932 
   26100    1206.2948   -24422.831   -25670.082    55.450286   -15.952394   -582.62738    764.93063    41.565772    41.565772    83.131543 
   26200    1196.0338   -24422.414   -25659.055     330.2882    458.71701    209.65312    322.49446    41.566175    41.566175     83.13235 
   26300     1197.198   -24421.996   -25659.841    140.55248   -259.37502   -207.51848    888.55094    41.568003    41.568003    83.136006 
   26400    1192.5436   -24421.651   -25654.684    119.38099   -429.20668    544.92405    242.42562    41.569795    41.569795    83.139591 
   26500    1206.8711   -24421.366   -25669.213   -288.91439   -677.33017     -132.139      -57.274    41.571276    41.571276    83.142552 
   26600    1196.9657   -24421.166   -25658.771    27.328675   -226.92588    449.64506   -140.73316    41.572256    41.572256    83.144512 
   26700    1184.6444   -24420.913   -25645.778    450.19023    165.58796    584.48632    600.49641    41.573576    41.573576    83.147153 
   26800    1216.3808   -24420.574   -25678.253   -596.25474   -267.00451   -941.08759   -580.67213    41.575657    41.575657    83.151314 
   26900    1196.9201   -24420.364   -25657.922   -138.33502   -516.77116    676.50246   -574.73635    41.576453    41.576453    83.152906 
   27000    1203.1524   -24420.243   -25664.245   -220.34703   -397.88178    -297.6287    34.469398    41.576021    41.576021    83.152041 
   27100    1196.4721    -24420.23   -25657.325    141.15774    312.95045     306.5204   -195.99763    41.574246    41.574246    83.148492 
   27200    1197.1193   -24420.128   -25657.892    38.228072    -320.8732    429.03508    6.5223319    41.572812    41.572812    83.145623 
   27300    1192.2922   -24419.945   -25652.717    279.65684     5.014754    697.93854    136.01721    41.571867    41.571867    83.143735 
   27400     1199.448   -24419.796   -25659.968   -44.905681   -213.43208   -180.74841    259.46346    41.570955    41.570955     83.14191 
   27500    1202.1732   -24419.654   -25662.643     44.44569    451.98881    423.23292   -741.88466    41.570198    41.570198    83.140396 
   27600    1201.9131   -24419.517   -25662.237   -104.48704   -445.98326   -193.65905     326.1812    41.569983    41.569983    83.139966 
   27700    1185.6603     -24419.3   -25645.216    495.55996    950.40475   -114.28165    650.55679    41.570173    41.570173    83.140346 
   27800    1195.6363   -24419.021   -25655.251    102.76363    767.08428   -239.88957   -218.90382    41.571337    41.571337    83.142675 
   27900    1197.4893   -24418.782   -25656.928   -73.856312    377.28857    30.159395    -629.0169    41.572787    41.572787    83.145575 
   28000    1192.7143   -24418.637   -25651.846    56.309465    297.89284    142.35558   -271.32002    41.573507    41.573507    83.147015 
   28100    1211.4514   -24418.549   -25671.132   -332.92923   -677.59667    173.91911   -495.11013    41.573514    41.573514    83.147028 
   28200    1209.4662   -24418.498   -25669.028   -243.54541   -132.20705    289.28352   -887.71269    41.573382    41.573382    83.146764 
   28300    1199.9648   -24418.423   -25659.129   -59.845146    273.73568    264.91912   -718.19024    41.573413    41.573413    83.146827 
   28400    1197.3555   -24418.347   -25656.355    20.253218   -179.55621    160.15399    80.161875    41.573255    41.573255     83.14651 
   28500    1197.6468   -24418.255   -25656.564    18.025958   -466.11339   -228.12018    748.31145    41.573331    41.573331    83.146662 
   28600    1211.8008   -24418.196    -25671.14   -417.18047   -806.24347    29.345211   -474.64314    41.573244    41.573244    83.146489 
   28700    1194.8291   -24418.172   -25653.568    175.55215    138.38605    1054.1274   -665.85698    41.572563    41.572563    83.145125 
   28800    1186.8438   -24418.061     -25645.2    394.27217    150.23208    720.68554    311.89889    41.572249    41.572249    83.144498 
   28900    1193.9121   -24417.918   -25652.366    283.40132    648.13592    -67.29548    269.36352    41.572315    41.572315     83.14463 
   29000    1191.1259   -24417.759   -25649.326    304.62401    449.28082    288.29146    176.29974    41.573137    41.573137    83.146274 
   29100    1201.9701   -24417.585   -25660.364    0.4780858   -209.18216    397.53585   -186.91944    41.574516    41.574516    83.149032 
   29200    1192.5253   -24417.411   -25650.425    69.689424     78.60938    397.10478   -266.64589    41.575717    41.575717    83.151434 
   29300    1217.2435   -24417.237   -25675.808   -498.31872   -1294.1582    53.218529   -254.01647    41.576763    41.576763    83.153527 
   29400    1188.8441    -24417.17   -25646.378    139.64481   -180.92093      440.382    159.47336    41.576878    41.576878    83.153757 
   29500    1206.0379   -24417.116   -25664.101   -244.00794   -69.529666   -269.61003   -392.88414    41.576422    41.576422    83.152845 
   29600    1184.1737   -24417.084   -25641.463    437.33631    149.48774    269.03679     893.4844    41.575483    41.575483    83.150966 
   29700    1190.2506   -24416.858    -25647.52    135.98237    348.28034    -357.5074    417.17417    41.575721    41.575721    83.151442 
   29800    1187.5326   -24416.532   -25644.384    230.61869    -63.86789    24.179853     731.5441    41.576146    41.576146    83.152292 
   29900     1201.085   -24416.094   -25657.959   -131.33441   -448.91805    296.78448   -241.86966    41.577017    41.577017    83.154034 
   30000     1184.047   -24415.783   -25640.031    221.67522   -93.914968     653.7674    105.17322    41.576732    41.576732    83.153464 
   30100    1207.6718   -24415.439   -25664.114   -209.13371   -499.57429    204.28435   -332.11121    41.576129    41.576129    83.152259 
   30200    1200.3484   -24415.158    -25656.26    32.563367    129.10309   -135.23586    103.82287    41.575322    41.575322    83.150645 
   30300    1197.2137    -24414.89   -25652.751    151.59287    111.70324    25.612077    317.46329    41.574959    41.574959    83.149918 
   30400    1188.0085   -24414.668   -25643.012    270.05252    1077.3739   -501.55034    234.33404    41.574933    41.574933    83.149865 
   30500    1203.6997   -24414.454   -25659.022   -84.503823    782.94701   -208.46441   -827.99407    41.575095    41.575095    83.150189 
   30600    1194.3721   -24414.235   -25649.159    271.78998    36.774141    459.43472    319.16107     41.57563     41.57563    83.151259 
   30700    1197.1964   -24413.936   -25651.779    211.52852     286.7322    790.44916   -442.59579    41.577083    41.577083    83.154166 
   30800    1191.0269   -24413.736   -25645.201    125.47931   -354.32677    510.55697    220.20773    41.578119    41.578119    83.156238 
   30900    1184.1161   -24413.583   -25637.902    450.15392    319.64741    106.39539    924.41896    41.578588    41.578588    83.157177 
   31000    1209.7892   -24413.304   -25664.168   -361.25386   -724.93701   -350.71954   -8.1050126    41.579696    41.579696    83.159392 
   31100    1204.3541   -24413.186    -25658.43   -133.83694   -424.93911    -642.9964    666.42469     41.57925     41.57925      83.1585 
   31200    1185.9134   -24413.027   -25639.204    232.53135   -258.35892    436.02793    519.92504    41.578375    41.578375    83.156749 
   31300    1192.2078   -24412.741   -25645.426    102.78441    424.20539    126.05403   -241.90617     41.57788     41.57788     83.15576 
   31400    1184.7486     -24412.4   -25637.373    268.74633    638.47637    -284.5017    452.26433    41.577693    41.577693    83.155386 
   31500    1191.2366   -24411.941   -25643.622    231.06214    651.23848   -110.66336     152.6113    41.578087    41.578087    83.156174 
   31600    1204.2632   -24411.535   -25656.685   -111.17717   -162.89223   -203.19513    32.555849     41.57856     41.57856     83.15712 
   31700    1197.1329   -24411.143   -25648.921    77.684251    767.32695     63.64969   -597.92389    41.578997    41.578997    83.157994 
   31800    1202.3918   -24410.795    -25654.01    -111.9073    380.51296   -96.786301   -619.44856    41.579224    41.579224    83.158448 
   31900    1197.0084   -24410.554   -25648.203    48.221128   -314.31481   -82.263545    541.24174    41.578815    41.578815    83.157629 
   32000      1190.96   -24410.368   -25641.763    226.39827    -128.3851    953.06484   -145.48493     41.57813     41.57813    83.156261 
   32100    1207.8998   -24410.106   -25659.017   -156.60985   -350.71617   -21.745915   -97.367471    41.578129    41.578129    83.156259 
   32200    1209.0271   -24409.886   -25659.962   -291.03296    717.29463   -421.04356   -1169.3499    41.578223    41.578223    83.156447 
   32300     1188.546   -24409.741    -25638.64    359.95144    762.59274   -62.896083    380.15766    41.578146    41.578146    83.156291 
   32400    1187.5281    -24409.57   -25637.417    324.29387    746.18235   -91.552485    318.25176    41.578868    41.578868    83.157735 
   32500    1204.8038   -24409.287   -25654.996   -217.07296   -48.142314    319.14724   -922.22379    41.580388    41.580388    83.160775 
   32600    1196.4707    -24409.07   -25646.164    125.96983    279.51343   -13.786038     112.1821    41.581324    41.581324    83.162648 
   32700     1203.205   -24408.858   -25652.914   -319.02263   -368.36839   -3.7522688   -584.94722     41.58226     41.58226    83.164521 
   32800    1205.3717   -24408.639   -25654.936   -234.24716   -456.57868   -281.16939     35.00659    41.582731    41.582731    83.165463 
   32900    1207.6067   -24408.483    -25657.09   -379.85113   -902.40542    669.92361   -907.07157    41.582273    41.582273    83.164546 
   33000     1194.677    -24408.44   -25643.679    104.44325   -212.10658    36.070248    489.36607    41.580463    41.580463    83.160925 
   33100    1196.6775    -24408.41   -25645.717   -5.5675303   -284.90051    196.73368    71.464239    41.578705    41.578705     83.15741 
   33200     1196.308    -24408.39   -25645.315    212.38529    672.26496    -34.74918  -0.35989442    41.577335    41.577335     83.15467 
   33300    1201.8965   -24408.402   -25651.105    12.521113   -789.61606    313.57744    513.60196    41.576074    41.576074    83.152147 
   33400    1188.3993   -24408.431   -25637.179    534.74062   -33.448563     163.9828    1473.6876    41.574988    41.574988    83.149976 
   33500    1203.0871   -24408.439   -25652.373    260.99428    608.05155     25.68526    149.24602    41.574896    41.574896    83.149792 
   33600    1201.6045   -24408.525   -25650.926    210.39398   -15.176857    537.55891     108.7999    41.575437    41.575437    83.150874 
   33700     1192.135   -24408.643   -25641.254     418.8385    567.68371    355.20205    333.62975    41.576755    41.576755     83.15351 
   33800    1201.0148   -24408.734   -25650.526    95.358773     356.1543   -52.008445   -18.069541    41.579105    41.579105     83.15821 
   33900    1189.7436   -24408.811   -25638.949    216.71938    160.23752    654.74371    -164.8231    41.581598    41.581598    83.163196 
   34000    1214.6212   -24408.773   -25664.633   -647.27395    182.59336   -1546.4332   -577.98196    41.584435    41.584435    83.168869 
   34100    1197.6176   -24408.842   -25647.121   -367.98962   -65.096205   -409.72637   -629.14627    41.585378    41.585378    83.170756 
   34200    1188.8063   -24408.938   -25638.106   -124.01882   -24.273838   -330.21303   -17.569577    41.584371    41.584371    83.168742 
   34300    1194.6061   -24408.968   -25644.133   -125.13089   -81.342569    511.53145   -805.58154    41.582092    41.582092    83.164183 
   34400    1215.7593    -24408.97   -25666.006    -334.4047   -698.98653   -171.35833   -132.86925    41.579184    41.579184    83.158369 
   34500    1194.7569   -24408.988   -25644.309     249.2313   -128.11276     780.5639    95.242755    41.576462    41.576462    83.152924 
   34600    1210.5537   -24408.922   -25660.576   -60.217962    734.39566   -630.63234   -284.41721     41.57495     41.57495    83.149901 
   34700    1203.3857   -24408.911   -25653.154    93.861543   -35.034937   -639.01926    955.63883    41.574004    41.574004    83.148007 
   34800    1198.2819   -24408.965   -25647.931    299.12651    489.19973    637.68136   -229.50156    41.574173    41.574173    83.148346 
   34900    1204.7379   -24409.048   -25654.689    184.78636   -526.87013    353.48562    727.74358    41.575629    41.575629    83.151258 
   35000    1194.6471   -24409.145   -25644.353    262.58236    98.911551    512.56728    176.26827    41.578155    41.578155     83.15631 
   35100     1207.866   -24409.155    -25658.03   -255.03804   -112.84001   -50.790649   -601.48348    41.581637    41.581637    83.163274 
   35200    1209.7063   -24409.102    -25659.88   -431.98316     406.3631   -1372.9856   -329.32699    41.584948    41.584948    83.169895 
   35300    1189.0882    -24409.17    -25638.63    8.4900565    282.16962   -334.86877     78.16932    41.586398    41.586398    83.172797 
   35400    1208.1368   -24409.207   -25658.363   -602.74821   -949.88352   -161.17936   -697.18176    41.586803    41.586803    83.173605 
   35500    1196.8034   -24409.316   -25646.753   -234.59884    532.21476   -1380.0148    144.00352    41.585491    41.585491    83.170981 
   35600    1199.4629   -24409.383    -25649.57   -197.87618   -0.5303027   -517.99898   -75.099245     41.58305     41.58305    83.166101 
   35700    1210.1275   -24409.464   -25660.677   -280.68237   -162.91005    213.81217   -892.94923    41.579942    41.579942    83.159885 
   35800    1209.2106   -24409.531   -25659.797   -58.739924    336.86291   -563.42725    50.344564    41.576683    41.576683    83.153365 
   35900    1212.7347   -24409.621    -25663.53   -122.34367   -204.78242    256.12776   -418.37634    41.573855    41.573855    83.147711 
   36000    1205.6405   -24409.738   -25656.312    208.16867    620.98348   -217.53799    221.06051    41.571574    41.571574    83.143147 
   36100    1192.6061   -24409.928   -25643.025    561.52402    605.37384   -252.62205    1331.8203    41.570279    41.570279    83.140558 
   36200    1198.4635   -24410.105   -25649.259    305.24906    380.23425    771.94017   -236.42725    41.570597    41.570597    83.141195 
   36300    1207.2558   -24410.299   -25658.544    134.83287    -458.2572    89.139509     773.6163    41.572219    41.572219    83.144437 
   36400    1201.4243   -24410.561   -25652.776    2.4058348   -386.59355    61.066956     332.7441    41.574564    41.574564    83.149129 
   36500    1212.3655   -24410.872     -25664.4    -273.8484    56.141872   -786.03923    -91.64784    41.576674    41.576674    83.153349 
   36600    1208.7571   -24411.317   -25661.114   -287.69293   -1014.9445   -321.99463    473.86035    41.577752    41.577752    83.155503 
   36700    1214.4689   -24411.768   -25667.471   -400.30067   -1357.4937    338.80907   -182.21733    41.578231    41.578231    83.156462 
   36800    1202.7092   -24412.137   -25655.681   -90.969149   -339.97492    38.744965     28.32251    41.578794    41.578794    83.157588 
   36900    1202.7153   -24412.534   -25656.084   -161.21047   -589.94837    401.47012   -295.15316    41.578916    41.578916    83.157832 
   37000    1200.7959   -24412.787   -25654.353     86.15928   -153.92092    222.66024    189.73852    41.579235    41.579235    83.158471 
   37100    1189.5629   -24412.986   -25642.937     144.4415   -135.42028    385.78107     182.9637    41.579487    41.579487    83.158973 
   37200    1203.8782   -24413.117   -25657.869   -282.60057   -642.20165   -252.22815    46.628096    41.579584    41.579584    83.159168 
   37300    1198.0719   -24413.301   -25652.049   -179.17656   -886.79836    440.76114   -91.492478    41.578619    41.578619    83.157238 
   37400    1205.6872    -24413.39   -25660.012   -258.32681   -636.39595   -114.08032   -24.504162    41.577521    41.577521    83.155041 
   37500    1204.4174   -24413.515   -25658.825   -152.81549   -807.80277    165.13738    184.21894    41.575915    41.575915     83.15183 
   37600    1208.5062   -24413.675   -25663.212   -209.11524    -785.9088   -531.13733    689.70042    41.574201    41.574201    83.148401 
   37700    1211.9668    -24413.82   -25666.935   -243.82225   -248.44594    1.0737883   -484.09461    41.572837    41.572837    83.145674 
   37800    1187.8743   -24414.014   -25642.219    466.24527    559.29409    163.13431    676.30742    41.571655    41.571655    83.143311 
   37900    1200.8749   -24414.152   -25655.799    306.00167    933.62157     745.0139   -760.63045    41.571487    41.571487    83.142973 
   38000    1210.1052   -24414.333   -25665.524   -158.52091    195.12212   -55.901705   -614.78313    41.572327    41.572327    83.144653 
   38100    1199.5892   -24414.464   -25654.781    106.56288    -150.6578    428.91621    41.430231    41.573989    41.573989    83.147979 
   38200    1207.5347   -24414.526   -25663.059    -190.6986   -631.39269    23.035887     36.26102    41.576231    41.576231    83.152462 
   38300    1211.9088   -24414.678   -25667.733   -333.11989    -252.6354   -211.92829   -534.79597    41.577983    41.577983    83.155966 
   38400    1212.0943   -24414.786   -25668.033   -485.49866   -50.669703   -826.45137    -579.3749    41.579407    41.579407    83.158815 
   38500    1194.3054   -24414.982   -25649.836    132.97644     123.4258    34.711633     240.7919    41.579251    41.579251    83.158501 
   38600    1182.6907   -24415.101   -25637.946    370.15559    426.22551   -31.561823    715.80309    41.578595    41.578595    83.157191 
   38700    1200.0051   -24415.201   -25655.948   -169.94147   -349.32859   -264.35325    103.85743    41.577476    41.577476    83.154953 
   38800    1198.1832   -24415.302   -25654.166   -38.334712   -563.08975    263.69931     184.3863    41.575404    41.575404    83.150807 
   38900    1200.2999   -24415.326   -25656.378     146.1401    140.05873    145.57782    152.78375    41.573613    41.573613    83.147226 
   39000    1208.8365   -24415.291    -25665.17    -37.97781   -196.76654    517.37431   -434.54121    41.572946    41.572946    83.145892 
   39100    1201.8914   -24415.278   -25657.976   -23.517675    370.88313    -302.2163   -139.21986    41.572623    41.572623    83.145246 
   39200    1215.7405   -24415.187   -25672.205   -385.94052   -50.632484   -1201.8666    94.677507     41.57311     41.57311     83.14622 
   39300    1187.5937   -24415.135    -25643.05    384.17063   -32.744507    972.69036    212.56603     41.57348     41.57348    83.146961 
   39400    1200.4322   -24415.095   -25656.285    15.026002   -338.57088    25.202102    358.44678    41.574112    41.574112    83.148224 
   39500    1208.2578   -24415.077   -25664.357   -336.66484   -206.19477   -597.37582   -206.42392    41.574751    41.574751    83.149502 
   39600    1199.6345   -24415.183   -25655.547   -61.899907   -220.74608   -158.98607    194.03243    41.574688    41.574688    83.149376 
   39700    1192.8536   -24415.193   -25648.546    60.472381   -153.56237    117.28598    217.69354    41.575023    41.575023    83.150046 
   39800    1205.3469   -24415.132   -25661.403   -220.39664   -269.98249   -138.54762   -252.65982    41.575387    41.575387    83.150774 
   39900    1192.5269   -24415.171   -25648.187   -18.694432   -360.59592    52.678895    251.83373    41.574683    41.574683    83.149365 
   40000    1185.3018   -24415.216   -25640.761    429.14594    43.084903    895.79103    348.56189    41.573494    41.573494    83.146989 
   40100    1195.2638   -24415.176   -25651.022    61.047124   -331.62838    586.89511   -72.125355    41.573038    41.573038    83.146076 
   40200    1207.8608   -24415.099   -25663.969   -155.69144   -22.388814   -292.30562   -152.37987    41.573145    41.573145     83.14629 
   40300     1191.011   -24415.058   -25646.506    31.608087   -61.951474    218.18674   -61.411003    41.573346    41.573346    83.146691 
   40400    1218.2365   -24415.013   -25674.611   -380.48494   -844.78243    295.94412   -592.61652    41.573731    41.573731    83.147462 
   40500    1193.8253   -24415.019   -25649.377    309.20903   -57.435226    441.71528    543.34704    41.574113    41.574113    83.148227 
   40600    1203.6443    -24415.04   -25659.551   -19.707577   -641.40276    44.246609    538.03343    41.575144    41.575144    83.150288 
   40700    1212.0234   -24415.062   -25668.236   -331.76555    104.28522   -768.49949   -331.08237    41.576423    41.576423    83.152847 
   40800    1193.1993   -24415.144   -25648.855    295.99763    368.62041   -116.09073     635.4632    41.576898    41.576898    83.153797 
   40900    1192.3586   -24415.267   -25648.109    242.64935    602.58161    6.0088144    119.35762    41.577229    41.577229    83.154457 
   41000    1202.6291     -24415.3    -25658.76   -43.409928    611.78096   -368.88978   -373.12096    41.578223    41.578223    83.156446 
   41100    1198.6248   -24415.351   -25654.672    -250.1955    344.68454   -644.92527   -450.34576    41.579052    41.579052    83.158105 
   41200    1201.7637   -24415.393   -25657.959   -322.82504   -686.42942   -8.4543621   -273.59134    41.578479    41.578479    83.156958 
   41300    1205.5348   -24415.553   -25662.018   -227.66707    76.610017   -190.20949   -569.40173    41.576088    41.576088    83.152176 
   41400    1192.7829   -24415.709   -25648.989    165.46789   -295.37494    721.68326    70.095365    41.573286    41.573286    83.146572 
   41500    1202.3131   -24415.817   -25658.951    219.96589    1.0517358    419.95457    238.89135    41.570954    41.570954    83.141909 
   41600    1178.3122   -24415.895   -25634.213    637.37282    691.58685    1054.2693    166.26234     41.56953     41.56953     83.13906 
   41700     1203.448   -24415.855   -25660.162    11.206784   -366.07423    555.08558     -155.391    41.569355    41.569355    83.138709 
   41800    1202.8325   -24415.859    -25659.53    86.525477   -353.28055    541.92466    70.932321    41.569778    41.569778    83.139557 
   41900    1197.4122    -24415.83   -25653.897    109.59535   -54.801933    565.91073   -182.32275    41.571246    41.571246    83.142491 
   42000    1198.5349   -24415.816   -25655.043    13.215823    207.93846    218.89302   -387.18401    41.573062    41.573062    83.146123 
   42100    1193.3622   -24415.728   -25649.608    68.105103   -169.40761     293.3349    80.388013    41.575303    41.575303    83.150605 
   42200    1200.1663    -24415.66   -25656.574    -53.09576   -412.97459   -514.58321    768.27051    41.577429    41.577429    83.154857 
   42300    1180.3283   -24415.548   -25635.951    213.03979    329.91214   -239.47608    548.68331    41.578964    41.578964    83.157929 
   42400    1190.4597   -24415.327   -25646.205   -20.177772    267.54707    -548.0598    219.97942    41.579995    41.579995     83.15999 
   42500    1191.4647   -24415.007   -25646.924   -32.732297   -795.27443    140.86531    556.21223     41.58063     41.58063    83.161261 
   42600    1206.6558   -24414.705   -25662.329   -393.76509   -672.07975   -540.39728     31.18176    41.580228    41.580228    83.160456 
   42700    1199.4683    -24414.47   -25654.662    58.135938     85.07061    417.11943   -327.78223    41.578459    41.578459    83.156918 
   42800    1199.6994   -24414.259   -25654.691   -161.46851    380.44291   -278.09148   -586.75697    41.576417    41.576417    83.152834 
   42900     1192.968    -24414.03   -25647.501    215.53008    711.51872    253.14734   -318.07581    41.574241    41.574241    83.148482 
   43000    1198.6467   -24413.776    -25653.12    184.50141    230.52919    58.592435    264.38259    41.572712    41.572712    83.145424 
   43100    1201.7037   -24413.564   -25656.068    115.37439    242.44323    26.294776    77.385173    41.572068    41.572068    83.144135 
   43200    1196.8924   -24413.452   -25650.982     265.3819      836.392   -168.75073    128.50443    41.571802    41.571802    83.143605 
   43300    1201.7414    -24413.35   -25655.893    54.233269    122.02798    631.24445   -590.57261    41.572298    41.572298    83.144597 
   43400    1206.1723   -24413.332   -25660.456    8.9916078    467.29842   -413.53332   -26.790277    41.572964    41.572964    83.145929 
   43500    1181.8985   -24413.408   -25635.434    300.35495    765.81718   -523.61674     658.8644    41.573766    41.573766    83.147533 
   43600    1214.6076   -24413.404   -25669.249   -384.02002     133.4255   -887.85584   -397.62973    41.574993    41.574993    83.149985 
   43700    1203.0179   -24413.466   -25657.328    -165.8232   -125.11461   -46.169543   -326.18545    41.575927    41.575927    83.151854 
   43800    1188.4655   -24413.589   -25642.405    234.12117    334.93979    45.525676    321.89804    41.576255    41.576255     83.15251 
   43900    1193.8294   -24413.672   -25648.034    240.57606    661.82251   -366.68555    426.59122    41.576552    41.576552    83.153105 
   44000    1208.9164   -24413.682   -25663.644   -423.51761   -277.39273   -233.95381   -759.20628     41.57735     41.57735      83.1547 
   44100     1208.111   -24413.788   -25662.917   -368.08764   -289.65988   -566.68633    -247.9167    41.577043    41.577043    83.154087 
   44200    1201.4605   -24413.836   -25656.088   -47.494255   -92.871093   -344.83259    295.22092    41.576452    41.576452    83.152904 
   44300    1201.4507   -24413.915   -25656.158    22.980884    258.03148   -587.70946    398.62064    41.575623    41.575623    83.151245 
   44400    1191.0025   -24413.929   -25645.369    122.66703    523.19186   -27.645834   -127.54495     41.57531     41.57531    83.150621 
   44500    1206.0738   -24413.942   -25660.965   -61.275796   -62.249203   -356.13381    234.55563    41.574944    41.574944    83.149887 
   44600    1193.0714   -24414.129   -25647.707    329.46485    337.52944     745.9772   -95.112093    41.573713    41.573713    83.147426 
   44700     1212.803   -24414.328   -25668.308    -172.5156    683.46678   -420.69881   -780.31476    41.572508    41.572508    83.145015 
   44800    1200.5937   -24414.655   -25656.011     192.3332    30.632972    268.64776    277.71887    41.571058    41.571058    83.142116 
   44900    1190.9738   -24414.883   -25646.293    295.55341    29.280241     338.1546    519.22539    41.570811    41.570811    83.141622 
   45000    1197.6444   -24415.053    -25653.36    439.72065   -215.81629    689.42396    845.55427     41.57153     41.57153    83.143059 
   45100    1211.1961   -24415.217   -25667.536   -236.23464   -674.99888    200.80293   -234.50797    41.573362    41.573362    83.146724 
   45200    1204.7432   -24415.469   -25661.116   -3.8992808   -404.59546    873.91016   -481.01254    41.574714    41.574714    83.149428 
   45300    1199.4121   -24415.739   -25655.873   -99.077138   -205.26999   -108.71986    16.758434    41.575736    41.575736    83.151471 
   45400    1203.2951   -24416.003   -25660.152   -138.55556    141.32555   -64.556225   -492.43601    41.576028    41.576028    83.152056 
   45500    1191.4296   -24416.298   -25648.179    249.24658     630.3579    -307.6462    425.02804    41.575467    41.575467    83.150934 
   45600    1194.5891   -24416.497   -25651.644   -37.182621    118.41651    525.77573    -755.7401    41.574986    41.574986    83.149972 
   45700    1203.7705   -24416.641   -25661.282   -214.20588    -435.4645   -326.47422    119.32108    41.574189    41.574189    83.148377 
   45800    1220.4687   -24416.803   -25678.709   -333.67737   -131.53935   -455.35122   -414.14154    41.573188    41.573188    83.146376 
   45900    1208.2926   -24417.105   -25666.422   -85.045023    78.899088    -539.5083    205.47415    41.571934    41.571934    83.143868 
   46000      1194.56    -24417.44   -25652.557    257.74036    713.66324   -484.67204    544.22986    41.570892    41.570892    83.141783 
   46100    1194.3962   -24417.705   -25652.654    149.71546    512.85502   -38.934617   -24.774015    41.570906    41.570906    83.141811 
   46200    1201.5559   -24417.858   -25660.209   -13.324008    526.01072    258.84587   -824.82861    41.572044    41.572044    83.144089 
   46300    1204.9185   -24417.983   -25663.811   -157.95381   -270.57913    85.537284   -288.81958    41.573394    41.573394    83.146789 
   46400    1197.4843   -24418.119    -25656.26    56.014512    368.95953    108.36182   -309.27781    41.574144    41.574144    83.148289 
   46500    1193.2318   -24418.261   -25652.005   -51.131079    142.60573    203.83293   -499.83189    41.574403    41.574403    83.148806 
   46600    1200.9063   -24418.284   -25659.963   -240.72732   -377.63551   -321.05609   -23.490352    41.574643    41.574643    83.149287 
   46700    1190.5922   -24418.353   -25649.368    279.20719    456.95078    888.17177   -507.50097    41.573832    41.573832    83.147664 
   46800    1193.4756   -24418.401   -25652.398    75.091774    323.13893    45.695839   -143.55944    41.572752    41.572752    83.145504 
   46900    1193.2198   -24418.295   -25652.027    334.10438    406.41911    219.09052     376.8035    41.572409    41.572409    83.144819 
   47000    1201.7219   -24418.169   -25660.692   -153.76522   -118.86968   -324.38078   -18.045194    41.572948    41.572948    83.145895 
   47100    1183.8944   -24418.043   -25642.133     346.5791    731.04859    271.97988    36.708833    41.573545    41.573545    83.147091 
   47200    1187.1607   -24417.949   -25645.416    345.07736     -215.469    438.98801    811.71308    41.574153    41.574153    83.148306 
   47300       1206.3   -24417.971   -25665.227   -183.45823    372.10603    -25.03286   -897.44786      41.5742      41.5742    83.148401 
   47400    1211.4361   -24418.041   -25670.607   -237.50974    71.320439   -625.33367     -158.516    41.573964    41.573964    83.147929 
   47500    1198.3753   -24418.118   -25657.181    93.790223    558.65314   -48.956908   -228.32556    41.573634    41.573634    83.147269 
   47600    1205.2015   -24418.126   -25664.246   -238.73567    -217.7541   -258.42061   -240.03231    41.573778    41.573778    83.147556 
   47700    1200.4609   -24418.136   -25659.355   -55.689619    441.99599   -755.29187    146.22702    41.573671    41.573671    83.147342 
   47800    1199.1658   -24418.195   -25658.074     48.27149    44.803841   -387.54871    487.55933    41.572981    41.572981    83.145961 
   47900    1215.8681    -24418.21   -25675.359   -228.85749   -835.08774    96.547307    51.967955    41.572384    41.572384    83.144769 
   48000    1200.2873   -24418.307   -25659.346    175.95724   -390.36769    -271.2656     1189.505    41.571761    41.571761    83.143522 
   48100    1189.9703   -24418.392   -25648.764    297.07781    485.41517    675.12013   -269.30185    41.571777    41.571777    83.143554 
   48200    1204.6514   -24418.429   -25663.981   -120.62323   -51.853845    163.56741   -473.58325    41.572598    41.572598    83.145195 
   48300    1200.1603   -24418.523   -25659.431   -13.523278    236.87534  -0.48198657   -276.96319    41.573059    41.573059    83.146118 
   48400    1208.5754   -24418.695   -25668.303   -103.11293    708.70199    -424.3812   -593.65959    41.573078    41.573078    83.146156 
   48500    1199.5505   -24418.887   -25659.164    109.73883    257.77883    260.20158   -188.76392    41.573068    41.573068    83.146136 
   48600    1197.0104   -24419.018   -25656.669    47.397017    205.48443     -22.3255    -40.96788    41.573614    41.573614    83.147228 
   48700    1188.3565   -24419.053   -25647.757    222.89375    231.51374    121.12572    316.04179    41.574475    41.574475     83.14895 
   48800    1191.9254   -24419.047    -25651.44   -70.755936   -206.87939    237.92529   -243.31371    41.575035    41.575035    83.150069 
   48900    1203.3284   -24419.045   -25663.229   -198.38059   -488.14163    51.273117   -158.27327    41.574946    41.574946    83.149893 
   49000    1202.8978   -24419.034   -25662.772   -196.07591   -318.94705    112.02534   -381.30603    41.574287    41.574287    83.148574 
   49100    1202.6044   -24419.034   -25662.469   -19.348778    313.98823   -41.105318   -330.92925    41.573004    41.573004    83.146009 
   49200    1181.5112     -24419.1   -25640.726    543.36742    234.00854    131.10121    1264.9925    41.571299    41.571299    83.142597 
   49300    1185.0749   -24419.093   -25644.404     407.7241   -63.642155    129.61426    1157.2002    41.570546    41.570546    83.141091 
   49400    1203.0219   -24418.957   -25662.824   -55.840146   -971.50253    160.08293    643.89916    41.570934    41.570934    83.141867 
   49500    1185.7058   -24418.748   -25644.711    343.89025   -76.362192    828.18226    279.85068    41.572282    41.572282    83.144564 
   49600    1198.0222   -24418.343    -25657.04   -59.918814   -206.11522     524.8106   -498.45182     41.57502     41.57502     83.15004 
   49700    1198.9376   -24417.976    -25657.62   -195.03009   -168.45583   -127.09755   -289.53689    41.577024    41.577024    83.154047 
   49800    1191.8683   -24417.688   -25650.023    4.0137218   -173.41038   -122.88167    308.33321    41.577782    41.577782    83.155564 
   49900    1197.8062   -24417.371   -25655.845    -261.5191   -975.75521   -399.59627    590.79418    41.577772    41.577772    83.155545 
   50000    1194.3385   -24416.957   -25651.845    73.318353    52.716837    840.60407   -673.36585    41.577248    41.577248    83.154496 
Loop time of 1446.69 on 1 procs for 50000 steps with 8000 atoms

Pair  time (%) = 1306.14 (90.2848)
Neigh time (%) = 99.469 (6.87563)
Comm  time (%) = 8.58515 (0.593434)
Outpt time (%) = 0.631258 (0.0436346)
Other time (%) = 31.8633 (2.2025)

Nlocal:    8000 ave 8000 max 8000 min
Histogram: 1 0 0 0 0 0 0 0 0 0
Nghost:    9005 ave 9005 max 9005 min
Histogram: 1 0 0 0 0 0 0 0 0 0
Neighs:    286003 ave 286003 max 286003 min
Histogram: 1 0 0 0 0 0 0 0 0 0

Total # of neighbors = 286003
Ave neighs/atom = 35.7504
Neighbor list builds = 5000
Dangerous builds = 0
unfix		1

# Melt half the system
region  liquid block INF INF INF INF INF ${nzhalf}
region  liquid block INF INF INF INF INF 10
group	liquid_group region liquid
4014 atoms in group liquid_group

# Heat up one side to Tmelt to make sure it is melted
fix 2 liquid_group npt temp ${Tmelt} ${Tmelt} 1 z 0 0 10 drag 1.0
fix 2 liquid_group npt temp 2000 ${Tmelt} 1 z 0 0 10 drag 1.0
fix 2 liquid_group npt temp 2000 2000 1 z 0 0 10 drag 1.0
run		${eqsteps}
run		50000
Memory usage per processor = 5.95825 Mbytes
Step Temp TotEng PotEng Press Pxx Pyy Pzz Lx Ly Lz 
   50000    1194.3385   -24416.957   -25651.845    73.318353    52.716837    840.60407   -673.36585    41.577248    41.577248    83.154496 
   50100    1194.4202   -24414.602   -25649.575    236.28824   -806.81507    1161.1457    354.53412    41.577248    41.577248    83.154496 
   50200     1202.353   -24408.704   -25651.879    155.58399    4.2502281    706.39582   -243.89409    41.577248    41.577248     83.15468 
   50300    1195.9784   -24402.365   -25638.949    520.73075    238.10261    1406.3212   -82.231613    41.577248    41.577248    83.154921 
   50400    1203.3527   -24396.531    -25640.74    544.77289   -129.86747    1514.7901    249.39606    41.577248    41.577248    83.155216 
   50500    1203.6061   -24390.415   -25634.886    746.19232     955.2263    1023.8555    259.49518    41.577248    41.577248    83.155581 
   50600    1214.4655   -24383.818   -25639.517    615.26376   -195.00078    1369.4501    671.34195    41.577248    41.577248    83.156073 
   50700    1210.9988   -24376.899   -25629.014    939.22114    576.74596     1780.951    459.96641    41.577248    41.577248    83.156879 
   50800    1224.9942    -24369.89   -25636.475    706.48373    455.78901    913.98407    749.67812    41.577248    41.577248    83.157969 
   50900    1220.9553   -24362.763   -25625.172    1068.1748    978.17822     1803.077    423.26912    41.577248    41.577248     83.15946 
   51000    1224.7137   -24355.631   -25621.926    1306.3167    900.39005      1713.51    1305.0502    41.577248    41.577248    83.161372 
   51100    1224.9631   -24348.458   -25615.011    1463.4809    842.30553    1938.1805    1609.9568    41.577248    41.577248    83.164033 
   51200    1221.2218   -24341.228   -25603.912    1700.5993    1044.1209    2559.4276    1498.2492    41.577248    41.577248    83.167442 
   51300    1224.7808   -24333.912   -25600.276     1901.395     1290.368    2493.4544    1920.3627    41.577248    41.577248     83.17163 
   51400    1234.7682   -24326.619    -25603.31    1826.4131    1174.9985    2778.6743    1525.5666    41.577248    41.577248     83.17674 
   51500    1228.0304   -24319.218   -25588.943    2150.3323    1705.1663     2700.157    2045.6735    41.577248    41.577248      83.1827 
   51600     1236.544    -24311.88   -25590.407    2075.5003    1823.0045    2667.8926    1735.6038    41.577248    41.577248    83.189507 
   51700     1236.684   -24304.491   -25583.163    2131.7597    1348.7133    2829.3357    2217.2301    41.577248    41.577248     83.19717 
   51800     1242.968    -24297.12   -25582.289    2227.8711     1491.112    2908.9647    2283.5366    41.577248    41.577248     83.20589 
   51900    1248.8944    -24289.63   -25580.926     2278.487    1221.1338      3375.48    2238.8472    41.577248    41.577248    83.215616 
   52000    1251.6325    -24282.19   -25576.318    2454.8128    1335.4291    3379.7201     2649.289    41.577248    41.577248    83.226287 
   52100    1251.2979   -24274.763   -25568.544    2597.3753    2162.1038     3141.245    2488.7769    41.577248    41.577248     83.23816 
   52200    1248.3713   -24267.275    -25558.03    2765.4366    2017.5032    3068.0145    3210.7921    41.577248    41.577248    83.251262 
   52300    1251.7485   -24259.781   -25554.029    2758.1037    1842.0012    3438.4922    2993.8175    41.577248    41.577248    83.265683 
   52400    1261.7315   -24252.316   -25556.886    2664.5146    1575.3135    3363.9108    3054.3196    41.577248    41.577248     83.28143 
   52500    1270.1152   -24244.703   -25557.941    2472.3184    1885.5139    4034.7531    1496.6882    41.577248    41.577248     83.29843 
   52600    1257.5832   -24237.144   -25537.425    3072.7308    2312.0891    4410.3864    2495.7167    41.577248    41.577248    83.316195 
   52700     1270.765   -24229.641   -25543.551    2713.7353    2850.5683    2344.2052    2946.4323    41.577248    41.577248    83.334959 
   52800    1272.4512   -24222.043   -25537.696    2784.1697    2817.5736    3400.6653    2134.2703    41.577248    41.577248     83.35495 
   52900     1269.414   -24214.473   -25526.986    2885.8878    3028.9115    3368.4943    2260.2578    41.577248    41.577248    83.375874 
   53000    1266.5566   -24206.923   -25516.481    2921.3055    2319.5496    3211.2425    3233.1244    41.577248    41.577248    83.397701 
   53100    1275.4629    -24199.35   -25518.118    2810.6212    2467.2862    3460.7509    2503.8266    41.577248    41.577248    83.420747 
   53200    1270.2046   -24191.723   -25505.053    3315.6237    3257.4926    4126.4569    2562.9217    41.577248    41.577248    83.444716 
   53300    1275.0413   -24184.097   -25502.428    3081.3653    3166.8434    3552.6665    2524.5862    41.577248    41.577248     83.46935 
   53400     1274.758   -24176.449   -25494.487     3084.521    2293.7475    4178.4596     2781.356    41.577248    41.577248    83.494699 
   53500    1278.8667   -24168.804   -25491.091    3068.5711    2907.2357    3841.4827    2456.9949    41.577248    41.577248    83.520932 
   53600    1286.9492    -24161.15   -25491.793    2811.7427    2505.6919    3391.7525    2537.7839    41.577248    41.577248    83.547904 
   53700    1285.6801     -24153.5   -25482.831    2856.6525    2708.1818    3021.5851    2840.1905    41.577248    41.577248     83.57559 
   53800    1285.7815   -24145.898   -25475.334    2962.1516    2787.2492    4001.0077    2098.1979    41.577248    41.577248    83.604076 
   53900    1286.5621   -24138.258   -25468.501    2801.2454    3151.8118    3288.3664    1963.5579    41.577248    41.577248    83.633098 
   54000    1293.2501     -24130.6   -25467.758    2872.0725    3223.6413    3193.2751    2199.3011    41.577248    41.577248    83.662572 
   54100    1302.2016   -24122.895   -25469.309     2390.565     2409.057    3203.6226    1559.0153    41.577248    41.577248    83.692608 
   54200    1280.0814   -24115.216   -25438.759    3095.5445     2736.887    3742.4831    2807.2634    41.577248    41.577248    83.723027 
   54300    1299.1004   -24107.576   -25450.783    2783.5158    2455.1616    3114.0828    2781.3031    41.577248    41.577248    83.753971 
   54400    1282.8652   -24099.939    -25426.36     2960.252    2720.6407     3585.447    2574.6684    41.577248    41.577248     83.78553 
   54500    1274.6096   -24092.316   -25410.201    3337.8949    3329.7473    3828.8617    2855.0758    41.577248    41.577248    83.817443 
   54600    1295.9747   -24084.641   -25424.616    2789.0175    2506.3453    3912.5032    1948.2041    41.577248    41.577248    83.849714 
   54700    1290.0999   -24076.988   -25410.889    2769.8777    2356.9364    3075.4619     2877.235    41.577248    41.577248    83.882276 
[...]
  336300    1048.6678   -24135.081   -25219.353    94.402779   -229.45896    113.62883    399.03846    41.367272    41.367272    85.687275 
  336400    1048.0696   -24135.081   -25218.735   -207.21617    157.00164   -658.44372   -120.20642    41.367056    41.367056    85.720373 
  336500    1064.1062   -24135.093   -25235.328   -546.47604   -105.25649   -657.02018   -877.15146    41.366824    41.366824    85.716818 
  336600    1043.5878   -24135.088   -25214.108    538.10562    334.86066    501.28126    778.17494    41.366523    41.366523    85.666107 
  336700    1052.0613   -24135.092   -25222.873    369.27679    336.45657     226.6495     544.7243    41.366243    41.366243    85.653564 
  336800     1063.416   -24135.092   -25234.613   -291.56304   -263.93873    240.62078   -851.37118    41.366073    41.366073    85.669007 
  336900    1054.3484   -24135.085   -25225.231     348.5869    154.84887    453.55947    437.35236     41.36599     41.36599     85.65274 
  337000    1043.5416     -24135.1   -25214.072    325.87497    -457.8677    1003.5263    431.96626    41.366026    41.366026    85.681377 
  337100     1046.909   -24135.095   -25217.548    5.4021977    735.96951    260.62416   -980.38708    41.366157    41.366157    85.726628 
  337200    1054.2852   -24135.165   -25225.245    186.28651    616.47251    564.59664   -622.20961    41.366365    41.366365    85.675612 
  337300    1057.6543   -24135.136     -25228.7    629.50672   -26.954707    911.98155    1003.4933    41.366679    41.366679    85.580565 
  337400    1063.8991   -24135.122   -25235.143    779.53387    1441.4304    621.19105    275.98016    41.367111    41.367111    85.553744 
  337500    1051.0231   -24135.165   -25221.872    828.33871    131.84505    902.15111      1451.02    41.367851    41.367851    85.587095 
  337600     1060.762   -24135.208   -25231.984   -158.83983   -685.96473    660.57274   -451.12751    41.368731    41.368731    85.692331 
  337700    1058.9664   -24135.166   -25230.086    -718.6559   -175.84902   -984.31435   -995.80433    41.369509    41.369509    85.766752 
  337800    1045.2388   -24135.173     -25215.9   -556.17358    506.82877   -1217.8065   -957.54305    41.369985    41.369985    85.755649 
  337900    1056.8926    -24135.25   -25228.026    28.598559    11.082395    120.92386   -46.210579    41.370227    41.370227    85.661425 
  338000    1044.3652   -24135.192   -25215.015    1181.2153   -575.00349    2308.3777    1810.2716     41.37043     41.37043    85.580963 
  338100    1062.3779   -24135.202    -25233.65    435.89788    177.92267    1250.3531   -120.58214    41.370846    41.370846    85.609834 
  338200    1049.4961   -24135.212   -25220.341    378.43431    13.001828   -153.53964    1275.8408    41.371465    41.371465    85.656339 
  338300    1040.2769   -24135.249   -25210.845     31.40961   -115.15527    389.35712   -179.97303    41.371997    41.371997    85.736203 
  338400    1052.1306   -24135.218   -25223.071   -714.68941   -1010.0835   -608.15453   -525.83021    41.372395    41.372395     85.75858 
  338500    1059.2065   -24135.233   -25230.401   -457.59741   -362.20737   -1397.9023    387.31746    41.372568    41.372568    85.704264 
  338600    1057.4176   -24135.228   -25228.547    -331.2967    88.771248   -959.73707   -122.92428     41.37258     41.37258    85.677317 
  338700    1039.2166   -24135.218   -25209.718    428.33023    954.31301   -322.16092     652.8386    41.372519    41.372519    85.663332 
  338800    1053.8346   -24135.232   -25224.847     24.15848    707.49652   -112.52788   -522.49319    41.372522    41.372522     85.64678 
  338900     1053.295   -24135.255   -25224.311    404.76528   -5.6677905    898.34926    321.61437    41.372728    41.372728    85.581212 
  339000    1065.1423   -24135.241   -25236.547    407.50505    430.42339    434.17251    357.91924     41.37319     41.37319    85.533728 
  339100    1062.5208   -24135.237   -25233.832     665.1644    746.15433    1154.8822    94.456655    41.373895    41.373895    85.530398 
  339200    1063.8845   -24135.258   -25235.263    352.45015   -335.63745    1033.7082    359.27973    41.374826    41.374826    85.559676 
  339300    1057.5238   -24135.273   -25228.702     2.008644   -1069.5346    1151.2695   -75.708974    41.375827    41.375827    85.619771 
  339400    1052.1591   -24135.291   -25223.173   -195.57129   -127.32594   -411.25968   -48.128245     41.37672     41.37672    85.691524 
  339500      1051.99   -24135.271   -25222.978   -533.91744   -767.29929    33.563876    -868.0169    41.377386    41.377386    85.739786 
  339600    1048.1702   -24135.267   -25219.025   -218.01148    -1033.943   -642.66237     1022.571    41.377811    41.377811    85.713805 
  339700    1054.5591   -24135.264   -25225.627   -452.96238    60.440201   -1424.3151    4.9877191    41.377916    41.377916    85.717761 
  339800    1060.9948   -24135.291   -25232.309   -580.47537   -1500.7288    255.18334   -495.88064    41.377768    41.377768    85.700723 
  339900    1065.0482   -24135.283   -25236.492   -284.26833    314.50027   -878.65196   -288.65329    41.377476    41.377476    85.652544 
  340000    1060.7916   -24135.276   -25232.084   -168.11648   -455.84839   -492.14834    443.64728    41.377164    41.377164    85.620708 
  340100     1067.874   -24135.278   -25239.409   -105.26829   -186.48426      96.5823    -225.9029    41.376829    41.376829    85.608944 
  340200    1048.7715   -24135.278   -25219.657    380.04153    454.98469   -172.38291    857.52282    41.376533    41.376533    85.611707 
  340300    1059.6953   -24135.298   -25230.972   -439.73542   -956.89763    302.21705   -664.52569    41.376279    41.376279    85.671938 
  340400    1050.5907    -24135.28    -25221.54   -490.50655   -1607.8224      -79.961    216.26373    41.375979    41.375979     85.71008 
  340500    1041.0016   -24135.279   -25211.624   -158.44207   -178.04937   -68.609106   -228.66774    41.375478    41.375478    85.719299 
  340600    1043.0217   -24135.278   -25213.713     52.71932   -153.87359    42.654852     269.3767    41.374863    41.374863    85.701138 
  340700    1053.0731   -24135.303    -25224.13   -291.93997    155.86403   -100.15537   -931.52857    41.374203    41.374203    85.680132 
  340800      1057.68   -24135.296   -25228.886   -111.11607   -1114.8203    562.98678    218.48531    41.373638    41.373638    85.634185 
  340900    1061.1437    -24135.29   -25232.461    109.00429   -581.47338    1043.7867   -135.30044    41.373165    41.373165    85.617893 
  341000    1064.1384   -24135.304   -25235.572    235.13993    720.11595    398.22888   -412.92503    41.372933    41.372933    85.599532 
  341100    1062.0414   -24135.298   -25233.398    356.27224    680.10042    630.39823   -241.68193    41.373047    41.373047    85.568667 
  341200    1056.9034   -24135.299   -25228.086    539.26888    692.85823    892.13821    32.810191    41.373408    41.373408    85.545944 
  341300    1069.5319   -24135.309   -25241.154    381.65311    748.55092    609.42017   -213.01177    41.374095    41.374095    85.533111 
  341400    1055.5967   -24135.304    -25226.74    819.81976    495.92838     1298.361    665.16989     41.37508     41.37508    85.524782 
  341500     1060.332   -24135.315   -25231.648    394.17954    1035.0832   -62.457826    209.91325     41.37628     41.37628    85.547647 
  341600    1059.5343   -24135.366   -25230.873    29.628934    115.01912   -456.18679    430.05447     41.37749     41.37749    85.606966 
  341700    1055.0204   -24135.379    -25226.22   -439.34801   -944.58807   -621.32342    247.86747    41.378521    41.378521    85.697095 
  341800     1043.045   -24135.337   -25213.795   -578.34375   -1654.5679    95.606599   -176.06997    41.379278    41.379278    85.765576 
  341900    1065.6393   -24135.342   -25237.162   -1451.0336   -1547.9875   -1315.7016   -1489.4116     41.37946     41.37946    85.799954 
  342000    1062.2063   -24135.392   -25233.662   -977.03271   -785.68546   -984.80302   -1160.6097    41.379007    41.379007    85.755731 
  342100     1057.259   -24135.475    -25228.63   -179.72126     711.7385   -720.84472   -530.05757    41.378217    41.378217    85.640063 
  342200     1050.408   -24135.419   -25221.491    989.14862    174.51832    1416.5357    1376.3919      41.3775      41.3775    85.522856 
  342300    1065.9339   -24135.405   -25237.529    737.15626    1143.7558    530.10514    537.60785    41.377224    41.377224    85.497584 
  342400    1063.5368   -24135.423   -25235.069    571.58855    770.93313    492.94736    450.88517    41.377404    41.377404    85.532477 
  342500    1053.4542   -24135.427   -25224.648    244.39515    168.55479    1086.0078   -521.37714    41.377772    41.377772    85.597125 
  342600    1052.4453   -24135.416   -25223.594   -66.488426   -772.94895    359.96155    213.52212    41.378236    41.378236    85.634507 
  342700    1044.3338   -24135.411   -25215.202    33.155656   -344.20538   -222.15319    665.82554    41.378566    41.378566    85.650707 
  342800    1053.9263   -24135.423   -25225.132   -233.08592   -1080.4038   -340.90434    722.05041    41.378726    41.378726     85.67892 
  342900    1042.7627   -24135.434     -25213.6   -435.37888   -1579.5714    111.06147    162.37326    41.378602    41.378602    85.736186 
  343000    1049.9442   -24135.426   -25221.018   -905.66931   -1760.9525    434.72002   -1390.7754    41.378091    41.378091    85.765284 
  343100    1053.4505   -24135.539   -25224.756   -256.50766   -638.94986    768.85774   -899.43088    41.377311    41.377311    85.675893 
  343200    1061.1306   -24135.556   -25232.714    473.61159    164.65857    472.12804    784.04816    41.376593    41.376593    85.542767 
  343300    1051.1717   -24135.485   -25222.346    1146.8569    1294.6434    656.42824     1489.499    41.376214    41.376214     85.48913 
  343400    1049.3884   -24135.497   -25220.515    907.34699    1950.1902    574.94791    196.90285    41.376295    41.376295    85.529656 
  343500    1048.5188   -24135.511   -25219.629    522.84468    844.72976    244.21332    479.59096    41.376768    41.376768    85.575786 
  343600    1063.2238   -24135.548    -25234.87   -242.22171   -632.81094   -68.755532   -25.098658    41.377354    41.377354    85.650214 
  343700    1047.0948    -24135.51   -25218.156   -240.54746   -805.40997    689.74178    -605.9742     41.37786     41.37786    85.698555 
  343800    1062.0264   -24135.515   -25233.599   -512.44455   -820.70328   -330.20865   -386.42172    41.378298    41.378298    85.684431 
  343900    1057.8252   -24135.519   -25229.259   -197.50416   -119.97919   -495.72348    23.190181    41.378506    41.378506    85.649491 
  344000    1051.1641   -24135.526   -25222.379    613.12964    337.44576    982.91839    519.02479    41.378611    41.378611    85.603769 
  344100    1055.2802   -24135.519   -25226.628     183.3062    306.39077    237.63085    5.8969646    41.378849    41.378849    85.577403 
  344200    1047.2678   -24135.534   -25218.358    632.27819   -666.24752    1010.3227    1552.7594    41.379153    41.379153    85.582847 
  344300    1042.3029   -24135.576   -25213.267   -35.116448   -681.18232    88.745864    487.08712    41.379409    41.379409    85.668865 
  344400    1048.9025   -24135.551   -25220.066    -911.9673   -551.02576   -711.05273   -1473.8234     41.37943     41.37943    85.747279 
  344500    1056.2539   -24135.566   -25227.681   -620.02833    143.82444   -1172.3104     -831.599    41.379164    41.379164    85.727957 
  344600    1059.9091   -24135.611   -25231.506   -205.94365   -203.91307   -444.26602    30.348135    41.378694    41.378694    85.652601 
  344700    1060.0054   -24135.591   -25231.586    215.26222    234.49896    326.70136    84.586344      41.3782      41.3782    85.578473 
  344800    1052.8488   -24135.585    -25224.18    994.81871    1749.2171    504.33784    730.90114    41.377944    41.377944    85.526601 
  344900    1056.3442   -24135.579   -25227.788    778.14631    1135.2792    1224.3214   -25.161644    41.378179    41.378179    85.531264 
  345000    1060.2381   -24135.585    -25231.82    609.05424    1091.5598    223.34763    512.25526    41.378777    41.378777     85.54982 
  345100    1040.6457   -24135.587   -25211.564    734.50071    1800.8933   -295.15181    697.76061    41.379578    41.379578      85.5868 
  345200     1054.131   -24135.606   -25225.527   -173.16039    529.12065    -963.5372   -85.064615     41.38049     41.38049    85.637173 
  345300    1065.6756   -24135.614   -25237.471   -467.31424   -288.03329   -336.43807   -777.47137    41.381349    41.381349    85.639702 
  345400    1052.3661   -24135.609   -25223.705    136.13913    403.69606    623.02641   -618.30509    41.382087    41.382087    85.585719 
  345500    1060.6771   -24135.618   -25232.307    531.38447    888.94175    750.10705   -44.895402    41.382847    41.382847    85.533563 
  345600    1049.1824   -24135.602   -25220.406    997.19235     220.0939    1183.3021    1588.1811    41.383846    41.383846    85.495493 
  345700    1059.6156   -24135.676   -25231.268    262.55427   -77.763807    453.66947    411.75715    41.384944    41.384944    85.550598 
  345800    1058.7901   -24135.674   -25230.412   -473.46727     -641.032    38.243193     -817.613    41.386027    41.386027    85.645975 
  345900    1039.4629   -24135.634   -25210.389   -219.96886   -899.85961   -375.68018    615.63321    41.386871    41.386871    85.684181 
  346000    1056.5431   -24135.643   -25228.058    -684.7801   -630.24999   -907.43535   -516.65495    41.387282    41.387282    85.691603 
  346100    1044.0456   -24135.657    -25215.15    1.2234347    261.42281   -192.83536   -64.917144    41.387388    41.387388    85.650529 
  346200    1062.3867   -24135.672   -25234.129   -138.99757   -621.33207     185.7722    18.567154     41.38737     41.38737    85.589471 
  346300    1066.8312   -24135.657   -25238.709   -138.89056     638.1142   -175.42448   -879.36139    41.387354    41.387354    85.553415 
  346400    1064.6248    -24135.66   -25236.431    445.24696    873.56602    16.985021    445.18985    41.387446    41.387446    85.512861 
  346500    1064.9566   -24135.654   -25236.768    15.807743    311.49773    433.39246   -697.46697    41.387749    41.387749    85.508885 
  346600    1069.2859   -24135.663   -25241.254    428.43561    224.70205   -724.50869    1785.1135    41.388208    41.388208    85.486512 
  346700     1057.987   -24135.744   -25229.652    251.74838   -45.089433    170.17963    630.15493    41.388666    41.388666    85.561773 
  346800    1052.3892    -24135.74    -25223.86   -550.66044   -171.39688   -602.49009   -878.09434    41.389052    41.389052    85.677338 
  346900    1045.4868   -24135.699   -25216.682   -987.48412   -1058.0394   -476.05065   -1428.3623    41.389232    41.389232    85.717198 
  347000    1049.7755   -24135.731   -25221.149   -310.17988   -555.32466   -430.77413    55.559138    41.389055    41.389055    85.650753 
  347100    1052.7224   -24135.712   -25224.176   -170.62215   -1020.9606   -687.46919    1196.5634    41.388626    41.388626    85.613152 
  347200    1053.3242   -24135.742   -25224.828    -149.5998   -1141.5701    224.46412    468.30661    41.387983    41.387983    85.652516 
  347300    1050.5671   -24135.722   -25221.958     -770.335   -1180.6017   -526.33815   -604.06515     41.38725     41.38725    85.703523 
  347400     1053.742   -24135.725   -25225.243   -685.95286   -239.97451   -993.79315   -824.09093    41.386267    41.386267    85.712326 
  347500    1046.8933   -24135.751   -25218.188   -295.34112   -141.52572   -497.13609   -247.36156    41.385143    41.385143    85.666917 
  347600    1043.6982   -24135.782   -25214.916    380.20169    526.14007    255.51713    358.94788     41.38411     41.38411    85.588462 
  347700    1057.2327   -24135.753   -25228.881    555.19965    8.2463977    493.03418    1164.3184     41.38331     41.38331    85.526936 
  347800    1054.2801   -24135.754   -25225.829     408.1154    1170.7122    103.77621   -50.142167    41.382762    41.382762    85.550723 
  347900    1058.8268   -24135.796   -25230.572    441.06535   -146.44837    732.12729    737.51711    41.382533    41.382533    85.596578 
  348000    1051.7418   -24135.794   -25223.245   -198.17569    322.92084   -212.69682   -704.75108    41.382487    41.382487    85.689967 
  348100    1046.3015   -24135.779   -25217.604   -342.18276    1188.5243   -723.42163   -1491.6509    41.382486    41.382486    85.711036 
  348200    1057.9268   -24135.842   -25229.687   -449.27494    130.58192   -987.48652   -490.92022      41.3825      41.3825    85.627255 
  348300    1052.3317   -24135.816   -25223.877    497.23052    408.73337    297.87118    785.08701    41.382505    41.382505    85.538301 
  348400    1045.1537   -24135.798   -25216.437    898.24314    439.43015    1077.5541    1177.7452    41.382682    41.382682     85.51784 
  348500    1051.2291   -24135.826   -25222.746    508.88601    603.94009    761.98043    160.73751    41.383167    41.383167    85.559259 
  348600    1055.4623   -24135.825   -25227.122   -38.466028    977.70946   -529.59201   -563.51554    41.383877    41.383877    85.606897 
  348700     1058.012   -24135.828   -25229.761   -172.32212    766.17673    113.36633   -1396.5094    41.384601    41.384601    85.613517 
  348800    1059.3868   -24135.882   -25231.237    427.38913     41.04377    593.03515    648.08847    41.385404    41.385404      85.5329 
  348900    1053.3058   -24135.841   -25224.909    758.37657    807.10599    262.36584    1205.6579    41.386286    41.386286    85.498246 
  349000    1058.4612   -24135.929   -25230.327    122.75277    453.92246   -555.21972    469.55556     41.38724     41.38724    85.574088 
  349100    1064.1609   -24135.957   -25236.248   -969.17864   -1282.5819   -1253.1045   -371.84954     41.38808     41.38808    85.698801 
  349200    1050.9537   -24135.897   -25222.532    -1235.084   -973.18449   -1148.7325    -1583.335    41.388474    41.388474    85.767607 
  349300    1051.2558   -24135.937   -25222.885   -801.31275   -1348.8982   -765.91648   -289.12352     41.38845     41.38845    85.722767 
  349400    1056.0629   -24135.979   -25227.897   -397.11761   -1204.7488    178.38219   -164.98624    41.388081    41.388081    85.629164 
  349500    1055.8021   -24135.971    -25227.62    326.82917    39.292654     952.3713   -11.176434    41.387608    41.387608    85.536536 
  349600      1057.02   -24135.942    -25228.85    841.10307    1541.6404    274.11969    707.54909    41.387395    41.387395    85.475847 
  349700    1055.4826   -24135.996   -25227.314    641.83903    75.317433    634.19617    1216.0035    41.387504    41.387504    85.501295 
  349800     1047.661   -24136.193   -25219.424   -141.01217   -719.90611   -71.228137    368.09773    41.387708    41.387708     85.64737 
  349900    1048.0659   -24136.054   -25219.704    -1269.557   -719.45893   -1461.6547   -1627.5574    41.387649    41.387649     85.78602 
  350000    1059.8411   -24136.058   -25231.883   -1266.1455   -1869.7383   -983.18905   -945.50912    41.387119    41.387119    85.782622 
Loop time of 5630.01 on 1 procs for 200000 steps with 8000 atoms

Pair  time (%) = 5083.14 (90.2864)
Neigh time (%) = 391.42 (6.95238)
Comm  time (%) = 32.5676 (0.578464)
Outpt time (%) = 2.50837 (0.0445535)
Other time (%) = 120.383 (2.13823)

Nlocal:    8000 ave 8000 max 8000 min
Histogram: 1 0 0 0 0 0 0 0 0 0
Nghost:    8373 ave 8373 max 8373 min
Histogram: 1 0 0 0 0 0 0 0 0 0
Neighs:    275999 ave 275999 max 275999 min
Histogram: 1 0 0 0 0 0 0 0 0 0

Total # of neighbors = 275999
Ave neighs/atom = 34.4999
>>>>>>> 94dc76cbf6aefb67eb008d019d1914a1977c8b15
Neighbor list builds = 20000
Dangerous builds = 0
unfix		4
