LAMMPS (13 Jan 2014)
dimension       3
boundary        p p p
units           metal

atom_style	atomic
neighbor	0.3 bin
neigh_modify	every 10 delay 0 check no

# Number of steps for the equilibration steps
variable        eqsteps equal 50000

# Number of steps to run our NPH simulation
variable        simsteps equal 200000

# Our trial melting temperature
variable	T equal 1025.0
variable	T2 equal 2*${T}
variable	T2 equal 2*1025

# Some high temperature to melt the crystal
variable	Tmelt equal 2000.0

#System size
variable	nx equal 10
variable	ny equal 10
variable	nz equal 20
variable	nzhalf equal ${nz}*0.5
variable	nzhalf equal 20*0.5
variable	a equal 4.050
variable	length equal ${nz}*${a}
variable	length equal 20*${a}
variable	length equal 20*4.05

lattice		fcc ${a}
lattice		fcc 4.05
Lattice spacing in x,y,z = 4.05 4.05 4.05

region         box block 0 ${nx} 0 ${ny} 0 ${nz}
region         box block 0 10 0 ${ny} 0 ${nz}
region         box block 0 10 0 10 0 ${nz}
region         box block 0 10 0 10 0 20
create_box     1 box
Created orthogonal box = (0 0 0) to (40.5 40.5 81)
  1 by 1 by 1 MPI processor grid
create_atoms   1 box
Created 8000 atoms

mass		1 26.9815

pair_style	eam/alloy
pair_coeff	* * Al_potential.alloy Al

velocity	all create ${T2} 1337
velocity	all create 2050 1337

# Create a dump file. This can be visualized with
# e.g. OVITO (http://www.ovito.org/)
dump		id all atom 1000 atomsdump

# 1 fs timestep
timestep	0.001
thermo_style	custom step temp etotal pe press pxx pyy pzz lx ly lz

# output every 100th timestep
thermo		100

# Equilibration the whole system to the trial melting temperature
fix		1 all npt temp ${T} ${T} 1 iso 0 0 3 drag 1.0
fix		1 all npt temp 1025 ${T} 1 iso 0 0 3 drag 1.0
fix		1 all npt temp 1025 1025 1 iso 0 0 3 drag 1.0
run		${eqsteps}
run		50000
Memory usage per processor = 5.95314 Mbytes
Step Temp TotEng PotEng Press Pxx Pyy Pzz Lx Ly Lz 
       0         2050    -25057.65   -27177.252    12976.601    12821.744    12805.726    13302.332         40.5         40.5           81 
     100    977.93107   -25079.577   -26090.711    33305.943    33633.437    33386.277    32898.116     40.59008     40.59008    81.180161 
     200    966.93905   -25114.053   -26113.821    21263.072     21971.37    21197.108    20620.737    40.805201    40.805201    81.610402 
     300    954.41885   -25130.917   -26117.741    11904.059    11951.255    11611.738    12149.184    40.983587    40.983587    81.967173 
     400     946.3929   -25135.438   -26113.963    5660.6786    5612.8351    5858.0358    5511.1648    41.111209    41.111209    82.222417 
     500    928.44259   -25134.158   -26094.123    1336.8408    1462.6864    1347.7053    1200.1307    41.208838    41.208838    82.417676 
     600    920.24838    -25130.02   -26081.512   -1553.5718   -1235.7492    -1551.102   -1873.8644    41.276997    41.276997    82.553993 
     700    916.24466   -25125.017    -26072.37   -3239.2917   -3440.4669    -3003.137   -3274.2713    41.315015    41.315015     82.63003 
     800    927.63615   -25120.376   -26079.508   -3829.5954   -3687.8192   -4021.9284   -3779.0386    41.326552    41.326552    82.653104 
     900     921.3282    -25116.44   -26069.049   -3196.7935   -2897.9754   -3124.8423   -3567.5628    41.316735    41.316735    82.633471 
    1000    929.80818   -25112.827   -26074.204   -2058.4555   -2266.6901   -1749.1797   -2159.4968    41.293612    41.293612    82.587225 
    1100    937.84514   -25109.193    -26078.88    -809.4187   -304.56763   -719.58297   -1404.1055    41.265631    41.265631    82.531262 
    1200    932.44098   -25105.379   -26069.478    743.18311    879.20358    661.65834    688.68741    41.240248    41.240248    82.480496 
    1300    952.03469   -25101.501   -26085.859    1121.0515     1046.456    1255.6614    1061.0372    41.222909    41.222909    82.445819 
    1400     942.3798    -25097.73   -26072.105    1883.4098    2093.0143     1615.056     1942.159    41.215489    41.215489    82.430978 
    1500    938.04236   -25094.084   -26063.975     1875.487    2125.7785    1739.2533    1761.4292    41.218669    41.218669    82.437337 
    1600    941.31699   -25090.413    -26063.69    1369.5081    1535.2158    1284.3818    1288.9265    41.230343    41.230343    82.460687 
    1700    955.78935   -25086.743   -26074.983    402.65031    286.81898    560.93221    360.19974    41.246357    41.246357    82.492713 
    1800    936.94447   -25083.069   -26051.825    160.76167    369.39741   -65.580857    178.46847    41.262185    41.262185    82.524371 
    1900    949.34877   -25079.299    -26060.88   -692.96424   -737.95988   -545.45938   -795.47346    41.275299    41.275299    82.550598 
    2000    951.87175   -25075.537   -26059.726   -1001.7367   -586.92464   -1201.9118   -1216.3737    41.283144    41.283144    82.566287 
    2100    944.63335   -25071.815   -26048.521   -825.18573   -1138.7993   -689.30587   -647.45196    41.285148    41.285148    82.570295 
    2200    950.09518   -25068.119   -26050.471   -697.07852    -579.6285   -1002.4135   -509.19351    41.282384    41.282384    82.564767 
    2300    963.77414   -25064.496   -26060.992   -512.58879   -84.286724   -1017.2306   -436.24901    41.276227    41.276227    82.552454 
    2400    947.65697   -25061.001   -26040.833    338.84017    718.70323   -75.245873    373.06315    41.268683    41.268683    82.537366 
    2500    961.61594   -25057.472   -26051.736    292.45508    676.93171    155.88296    44.550557    41.262995    41.262995     82.52599 
    2600    967.46092   -25054.034   -26054.342      444.125    624.38827     630.5532     77.43353    41.259949    41.259949    82.519897 
    2700    962.47588   -25050.699   -26045.852    773.23467    46.671174    1142.5379    1130.4949    41.260316    41.260316    82.520632 
    2800    970.73039   -25047.432    -26051.12    367.67636    447.34181      481.292    174.39527    41.264319    41.264319    82.528638 
    2900    964.25351   -25044.171   -26041.163    417.17619    415.30155    438.52405    397.70298    41.271141    41.271141    82.542281 
    3000     962.0265   -25040.932   -26035.621   -38.362405    98.290181   -5.8142183   -207.56318    41.279267    41.279267    82.558535 
    3100    960.83592   -25037.692    -26031.15   -104.44083   -236.03115    -0.823238   -76.468107    41.286451    41.286451    82.572902 
    3200    973.52759   -25034.485   -26041.066   -527.14543   -859.83717   -440.33275   -281.26637    41.291788    41.291788    82.583576 
    3300    959.16865   -25031.346    -26023.08      -308.06   -460.29326   -784.61707    320.73032    41.293973    41.293973    82.587947 
    3400    963.45878   -25028.205   -26024.375   -301.53964   -147.89826   -539.86215   -216.85851    41.293651    41.293651    82.587301 
    3500     953.9435   -25025.108   -26011.439    276.61995    835.84529   -153.45146    147.46603    41.291116    41.291116    82.582231 
    3600    982.23156    -25022.04    -26037.62   -207.42269     41.28736   -784.17049    120.61507    41.288133    41.288133    82.576265 
    3700    967.45149   -25019.052    -26019.35    351.54287   -68.040782    136.20895    986.46046    41.285248    41.285248    82.570496 
    3800    976.64351   -25016.121   -26025.923    297.38632    364.93869   -17.890201    545.11048    41.283566    41.283566    82.567131 
    3900    979.18472    -25013.22    -26025.65    271.71741    32.448802    651.73435    130.96907    41.283681    41.283681    82.567361 
    4000    986.06138   -25010.381   -26029.921    89.532801    220.72253   -1.8846722    49.760551    41.285596    41.285596    82.571193 
    4100    978.10543   -25007.592   -26018.906    289.95216   -400.36447    467.98864     802.2323    41.288864    41.288864    82.577729 
    4200    971.97875   -25004.784   -26009.763    205.20408    353.43609    611.62425    -349.4481    41.293615    41.293615    82.587231 
    4300    974.89934    -25001.95   -26009.949    120.17595    191.07918    264.21688   -94.768195    41.298575    41.298575    82.597151 
    4400    986.07408   -24999.195   -26018.748    -248.5416   -253.44266   -226.81034   -265.37179    41.302771    41.302771    82.605543 
    4500    981.45723   -24996.514   -26011.294    -313.9207      -870.47    210.09029   -281.38238    41.305518    41.305518    82.611037 
    4600    983.62113   -24993.874   -26010.891   -270.38305    60.515051   -444.60616   -427.05806    41.306564    41.306564    82.613127 
    4700    986.18892   -24991.255   -26010.927   -170.81289    43.397177   -504.42847   -51.407376    41.306223    41.306223    82.612445 
    4800    979.72476   -24988.672    -26001.66    146.38647    624.47358    72.678125    -257.9923    41.305048    41.305048    82.610096 
    4900    992.60775   -24986.086   -26012.395   -105.32014   -95.237696   -260.38552    39.662803    41.304044    41.304044    82.608088 
    5000    1010.3091   -24983.568   -26028.179   -374.14421   -110.10938   -627.48254    -384.8407    41.303211    41.303211    82.606422 
    5100    987.80286   -24981.192   -26002.532    286.05056    123.26336    351.21468    383.67365    41.302632    41.302632    82.605265 
    5200     1004.244   -24978.779   -26017.119   -249.99938   -19.730504   -575.32742   -154.94021    41.303632    41.303632    82.607265 
    5300    982.95801   -24976.412   -25992.743    303.54526    347.87524    578.78645   -16.025913    41.305254    41.305254    82.610508 
    5400    992.74334   -24974.075   -26000.524    77.033235    12.302237   -245.74734     464.5448    41.307673    41.307673    82.615346 
    5500    998.29161   -24971.768   -26003.954   -100.96243    -547.3852    268.96218   -24.464267    41.310248    41.310248    82.620497 
    5600    1001.6975   -24969.475   -26005.182   -292.42479   -814.45641    188.28145   -251.09941    41.312687    41.312687    82.625374 
    5700    987.34522   -24967.257   -25988.124    125.59958   -441.12887   -17.648421    835.57602    41.314348    41.314348    82.628697 
    5800     995.0302   -24965.058   -25993.872   -16.982213   -447.69857    276.97546    119.77647    41.315781    41.315781    82.631563 
    5900    1007.2726   -24962.844   -26004.316   -397.40713    92.106835    -371.5792   -912.74902    41.317266    41.317266    82.634532 
    6000    992.78249   -24960.706   -25987.195    121.42234   -187.76551    473.94355    78.088984    41.317783    41.317783    82.635567 
    6100    996.62677   -24958.625   -25989.089    14.653445   -477.32639     231.7942    289.49253     41.31807     41.31807    82.636141 
    6200    1003.5418   -24956.569   -25994.183   -88.815281   -48.629515   -326.37745    108.56113    41.318344    41.318344    82.636688 
    6300    991.30076   -24954.605   -25979.563    116.52427    554.47864    135.76747   -340.67331    41.318383    41.318383    82.636766 
    6400    994.37416   -24952.671   -25980.806    136.71884   -205.33106   -49.642237    665.12982    41.318389    41.318389    82.636777 
    6500    1006.6473   -24950.714   -25991.539   -112.30258   -95.871858   -158.72736   -82.308512    41.318551    41.318551    82.637103 
    6600    996.60536   -24948.861   -25979.303    286.75253    -399.8203    631.41532    628.66258    41.318542    41.318542    82.637084 
    6700     1000.512   -24946.968   -25981.449    107.68594    4.5094023   -35.361876    353.91029    41.319628    41.319628    82.639256 
    6800    992.43523   -24945.091   -25971.222    246.92556    22.921302    452.39279     265.4626    41.321015    41.321015     82.64203 
    6900    1002.9885   -24943.257   -25980.299    16.658242   -99.651779   -100.55575    250.18225    41.322351    41.322351    82.644702 
    7000    1001.9432   -24941.433   -25977.394   -39.608945    517.81058   -91.896572   -544.74084     41.32387     41.32387    82.647739 
    7100    1017.5395   -24939.615   -25991.702   -353.94532   -637.12458    -399.3898   -25.321567    41.325387    41.325387    82.650774 
    7200    1008.3676   -24937.841   -25980.445    -91.85117   -161.44873    192.83163   -306.93641    41.326569    41.326569    82.653138 
    7300    1010.2416    -24936.12   -25980.661   -133.65466   -198.40032   -312.34112    109.77746    41.327848    41.327848    82.655695 
    7400     1010.339   -24934.405   -25979.047   -219.52508    51.622999   -120.96112   -589.23711    41.329242    41.329242    82.658484 
    7500    1011.4589   -24932.769   -25978.569   -167.28898   -232.13368    277.58427   -547.31753     41.32995     41.32995      82.6599 
    7600    1005.2291   -24931.201    -25970.56   -35.829241   -51.239749   -384.37703    328.12905    41.330118    41.330118    82.660237 
    7700    1009.4426   -24929.633   -25973.348   -161.07309   -231.29151      1.70669   -253.63446    41.330072    41.330072    82.660143 
    7800    1009.7855   -24928.096   -25972.166    6.8760472    99.604278   -288.04695    209.07081    41.329826    41.329826    82.659653 
    7900    1007.4541   -24926.606   -25968.265    125.47112    129.31293   -11.542703    258.64314    41.329825    41.329825    82.659651 
    8000     1016.796   -24925.163   -25976.481    -68.00309    447.37959   -349.07005   -302.31881      41.3302      41.3302      82.6604 
    8100    1006.6929   -24923.759   -25964.631    188.93827  -0.52850811    634.11751   -66.774199    41.330935    41.330935    82.661869 
    8200     1001.092   -24922.372   -25957.453    292.18487    344.66823    756.54932   -224.66294    41.332267    41.332267    82.664533 
    8300    1021.6581   -24921.003   -25977.348   -282.65209   -541.68185   -109.48327   -196.79116    41.333841    41.333841    82.667682 
    8400    1010.3191   -24919.761   -25964.382    53.967576      290.343    99.936682   -228.37696    41.334568    41.334568    82.669137 
    8500    1021.4456   -24918.518   -25974.643   -271.05608    -658.6025   -566.69467    412.12894    41.335289    41.335289    82.670577 
    8600    1015.0748   -24917.304   -25966.843    63.204291   -238.52445    19.055084    409.08224    41.335396    41.335396    82.670791 
    8700    1013.9764   -24916.108   -25964.511     36.94695   -192.76222    102.51314    201.08993    41.335616    41.335616    82.671233 
    8800    1015.2539   -24914.941   -25964.664   -38.623254    521.64573   -299.88239    -337.6331    41.336053    41.336053    82.672106 
    8900    1021.9333   -24913.763   -25970.393   -187.23634   -373.11528     51.03965    -239.6334    41.336761    41.336761    82.673522 
    9000    1017.6091   -24912.595   -25964.753    22.521358    255.92814    205.36898   -393.73304    41.337378    41.337378    82.674756 
    9100     1023.472   -24911.491   -25969.712    -174.7755    -137.9523   -402.63546    16.261273     41.33772     41.33772    82.675439 
    9200    1004.9321   -24910.515   -25949.566    346.46166    135.12362    450.23946    454.02189    41.337506    41.337506    82.675012 
    9300     1004.535   -24909.531   -25948.172    390.91351    451.23003    398.67776    322.83275    41.337583    41.337583    82.675165 
    9400    1020.7752   -24908.559   -25963.991   -84.932808    224.44629   -189.79776   -289.44696    41.337824    41.337824    82.675647 
    9500    1023.7737   -24907.631   -25966.164    -103.4203    113.88025   -558.14569    134.00453    41.337988    41.337988    82.675975 
    9600    1013.5801   -24906.685   -25954.678    189.12436    859.98356   -72.245941   -220.36455    41.338777    41.338777    82.677554 
    9700    1017.7774   -24905.786   -25958.119   -1.3376402   -83.763413    -372.3142    452.06469    41.339957    41.339957    82.679913 
    9800    1011.6991   -24904.966   -25951.014    134.52039   -340.98716   -84.469162    829.01748    41.340797    41.340797    82.681594 
    9900     1003.717   -24904.123   -25941.918     410.4166    895.93613   -251.44149    586.75515    41.341799    41.341799    82.683599 
   10000      1019.07   -24903.258   -25956.928    150.72174    451.31157    11.725696   -10.872048    41.342976    41.342976    82.685951 
   10100    1026.6644   -24902.489    -25964.01   -226.36524   -598.32638   -544.29173     463.5224    41.343522    41.343522    82.687044 
   10200    1013.3475   -24901.801   -25949.553    113.60987    -269.4128   -165.57554    775.81795    41.343507    41.343507    82.687014 
   10300    1029.4347   -24901.076   -25965.462   -388.21517    191.53392   -1081.6333   -274.54607    41.343682    41.343682    82.687365 
   10400    1015.2152    -24900.36   -25950.044    183.20047    478.31108   -157.69158     228.9819    41.343172    41.343172    82.686344 
   10500    1012.9627   -24899.709   -25947.064    134.74362    61.630001    251.61546    90.985415    41.342381    41.342381    82.684762 
   10600    1006.9103   -24899.102   -25940.199    428.94398    451.06833    115.87989    719.88372    41.341414    41.341414    82.682829 
   10700    1037.7887   -24898.458   -25971.482   -254.88602   -279.47318   -513.86456    28.679677    41.341221    41.341221    82.682443 
   10800    1026.1036   -24897.903   -25958.845    43.286438   -194.51324    137.37666     186.9959    41.341192    41.341192    82.682385 
   10900    1018.8407   -24897.421   -25950.853    234.37334   -522.79211    687.11271    538.79942    41.341665    41.341665    82.683331 
   11000    1026.1083   -24896.951   -25957.898    31.841746   -1289.1818    397.22035    987.48666    41.342946    41.342946    82.685892 
   11100    1029.4434   -24896.539   -25960.934   -224.05132   -193.02217   -326.29273   -152.83907    41.344332    41.344332    82.688664 
   11200    1022.2375   -24896.157   -25953.101    17.107472   -101.82839   -108.80859     261.9594    41.345337    41.345337    82.690674 
   11300    1026.8437   -24895.845   -25957.552   -94.232916   -539.39665    505.74735   -249.04945    41.345674    41.345674    82.691347 
   11400    1019.7265   -24895.554   -25949.902    197.00352    304.64596    650.86656   -364.50196    41.345693    41.345693    82.691386 
   11500    1018.2337   -24895.297   -25948.101    169.12334    624.75698   -286.55758    169.17062    41.345415    41.345415     82.69083 
   11600    1019.0805   -24895.073   -25948.753    116.84357    18.844402    568.25578   -236.56947    41.345065    41.345065     82.69013 
   11700    1030.0001   -24894.825   -25959.795    -120.0447   -622.52386    212.37189    50.017857    41.344858    41.344858    82.689717 
   11800    1025.7086   -24894.623   -25955.156     -4.16072    190.28077    218.30124   -421.06418    41.344469    41.344469    82.688939 
   11900    1021.7534   -24894.475   -25950.919    199.56006    803.10697   -306.34862    101.92182    41.344119    41.344119    82.688237 
   12000    1034.9081   -24894.352   -25964.397   -227.60945   -195.37247   -688.72453    201.26864    41.344162    41.344162    82.688325 
   12100    1031.2077   -24894.277   -25960.496   -18.070871   -84.284336   -182.71751    212.78923    41.344084    41.344084    82.688168 
   12200    1026.7921   -24894.228   -25955.881   -78.169734   -276.76972   -184.12419    226.38471    41.344264    41.344264    82.688527 
   12300    1016.7319   -24894.191   -25945.443     138.3024   -10.677627   -91.556162    517.14099    41.344558    41.344558    82.689117 
   12400     1021.499    -24894.08   -25950.261    95.007588    195.16223    26.497322    63.363215    41.345108    41.345108    82.690216 
   12500    1024.3211   -24893.978   -25953.077      16.8706   -171.54445   -175.16954    397.32579    41.345459    41.345459    82.690919 
   12600    1024.4338   -24893.874   -25953.089   -73.389207   -130.51312   -542.14125    452.48675    41.345637    41.345637    82.691275 
   12700     1028.642   -24893.762   -25957.329    -107.5537    401.27921   -303.76856   -420.17176    41.345657    41.345657    82.691315 
   12800     1023.679   -24893.672   -25952.107    159.53956   -14.289494   -288.14492     781.0531    41.345538    41.345538    82.691075 
   12900     1017.083   -24893.578   -25945.193    175.48124    323.92773   -220.92329    423.43928    41.345693    41.345693    82.691387 
   13000    1024.7626   -24893.448   -25953.003   -130.34489     718.0482   -237.65475   -871.42811    41.346098    41.346098    82.692197 
   13100    1022.9878    -24893.29    -25951.01   -34.918536    497.42099   -16.908314   -585.26828    41.346368    41.346368    82.692736 
   13200    1022.8593   -24893.156   -25950.743   -9.1829002   -537.71011    335.41056    174.75085     41.34615     41.34615    82.692301 
   13300    1027.7027   -24893.104   -25955.699   -62.812715   -142.83477    65.396705   -111.00008     41.34511     41.34511    82.690221 
   13400    1011.5221   -24893.097   -25938.962    411.08219   -371.95755    132.52359    1472.6805    41.344093    41.344093    82.688185 
   13500    1019.7036    -24893.08   -25947.404    217.31918    364.41264    232.14748    55.397426    41.343712    41.343712    82.687424 
   13600    1022.4345   -24892.949   -25950.097    77.821826   -225.38155     190.0719    268.77513    41.344485    41.344485    82.688971 
   13700    1023.4077   -24892.768   -25950.923   -42.222267    299.70589   -414.90562   -11.467071    41.345749    41.345749    82.691497 
   13800    1033.4514   -24892.586   -25961.125    -248.2719   -417.90299   -343.48381    16.571115    41.347016    41.347016    82.694033 
   13900    1030.3975   -24892.424   -25957.806   -147.73476   -784.27476    264.01485    77.055634    41.347985    41.347985    82.695969 
   14000     1023.869   -24892.238   -25950.869   -83.327848   -529.71104   -24.472899     304.2004    41.348994    41.348994    82.697988 
   14100    1033.5786   -24892.096   -25960.767   -342.86063   -621.58338   -334.75142   -72.247097    41.349291    41.349291    82.698582 
   14200    1015.6006   -24892.007   -25942.089    126.77101    433.58526    -536.7184    483.44617    41.348537    41.348537    82.697073 
   14300    1021.6368   -24891.884   -25948.207   -75.139494   -1.5658968    -265.7554    41.902812    41.347481    41.347481    82.694963 
   14400    1025.6967   -24891.788   -25952.309   -29.243777   -18.774336   -336.79798    267.84098    41.345982    41.345982    82.691965 
   14500    1027.6219   -24891.627   -25954.138    31.052106   -224.12615     506.8355   -189.55303    41.345262    41.345262    82.690525 
   14600    1017.1681   -24891.425   -25943.128    259.99173    265.82956    41.027381    473.11824    41.345129    41.345129    82.690259 
   14700    1030.0942   -24891.296   -25956.364    16.068715   -422.11468    230.68845    239.63237    41.345222    41.345222    82.690443 
   14800    1020.9831   -24891.255   -25946.902    201.88531    -11.94689      57.2272    560.37562    41.345392    41.345392    82.690784 
   14900    1023.5212   -24891.127   -25949.399    234.76045    841.61775    65.109347   -202.44574    41.346589    41.346589    82.693178 
   15000    1023.6711   -24891.041   -25949.468   -16.004427   -82.319645    618.44074   -584.13438    41.348069    41.348069    82.696137 
   15100    1020.9011   -24890.908   -25946.471   -59.340859    1.9741038   -69.497099   -110.49958    41.349684    41.349684    82.699369 
   15200    1026.2865   -24890.814   -25951.945   -161.40257    539.69083   -169.13843    -854.7601    41.350332    41.350332    82.700664 
   15300    1028.0657   -24890.757   -25953.728   -173.35057   -119.69265   -145.97239   -254.38667    41.349957    41.349957    82.699914 
   15400    1019.1057   -24890.706   -25944.412    111.33799    455.91205    450.23241   -572.13049    41.349262    41.349262    82.698524 
   15500    1020.3458   -24890.619   -25945.607    117.80942    244.68902   -313.31856    422.05779    41.348765    41.348765     82.69753 
   15600    1012.3867   -24890.573   -25937.332    341.85896    206.83414    474.57131    344.17142    41.348127    41.348127    82.696254 
   15700    1030.4429   -24890.466   -25955.894   -165.04335   -178.94776   -407.96003    91.777732    41.348155    41.348155     82.69631 
   15800    1029.4185   -24890.331     -25954.7   -256.95187    -15.29308    44.663068   -800.22559    41.348217    41.348217    82.696434 
   15900    1027.5557   -24890.251   -25952.694   -31.538345    353.38721   -72.918244     -375.084    41.347617    41.347617    82.695234 
   16000    1024.2919   -24890.211    -25949.28   -50.029222   -176.93738   -629.27109    656.12081    41.346809    41.346809    82.693618 
   16100    1028.0879   -24890.167   -25953.161   -22.813045   -124.59323   -78.929603     135.0837    41.346242    41.346242    82.692484 
   16200    1021.5906   -24890.127   -25946.403    90.588921    63.976306     36.27813    171.51233    41.346251    41.346251    82.692502 
   16300    1044.5738   -24890.116   -25970.156   -499.56973   -974.89683    -407.5793   -116.23304    41.346511    41.346511    82.693023 
   16400    1029.7493   -24890.131   -25954.843   -102.15465    393.49977   -202.41534   -497.54839     41.34659     41.34659     82.69318 
   16500    1021.8074   -24890.171   -25946.671    26.787556    51.798986   -146.55166    175.11534    41.346602    41.346602    82.693205 
   16600    1020.3028   -24890.229   -25945.173    93.217308    296.42701    212.89057   -229.66566    41.346404    41.346404    82.692807 
   16700    1023.5204   -24890.236   -25948.506    162.65686    397.77792     255.7367   -165.54403    41.346635    41.346635     82.69327 
   16800    1038.2688   -24890.247   -25963.767   -373.87751   -474.99864   -429.64084   -216.99304    41.347153    41.347153    82.694305 
   16900    1020.3009   -24890.332   -25945.274    251.72929    565.09318    478.30851   -288.21382    41.347009    41.347009    82.694018 
   17000    1038.1034   -24890.307   -25963.656   -260.15306   -323.95887   -186.89417   -269.60613    41.347888    41.347888    82.695776 
   17100    1017.3383   -24890.325   -25942.204    121.90375    30.676667    150.84623    184.18835    41.348561    41.348561    82.697122 
   17200    1024.2301    -24890.32   -25949.325   -34.403383   -369.32117    385.64613   -119.53511    41.349031    41.349031    82.698063 
   17300    1028.1693   -24890.374   -25953.452   -97.525623     544.5085   -288.94167    -548.1437    41.348899    41.348899    82.697799 
   17400    1033.0401   -24890.462   -25958.576    -242.7559    101.46089   -842.99009    13.261493    41.348415    41.348415     82.69683 
   17500    1027.7529   -24890.619   -25953.266   -142.19097   -700.52984    496.54311   -222.58619      41.3471      41.3471    82.694201 
   17600    1024.0857   -24890.706   -25949.561 0.0055703384     131.7686    -103.4825   -28.269391    41.346126    41.346126    82.692252 
   17700    1023.5762   -24890.772   -25949.101    153.70195    39.043765      109.539    312.52309    41.345213    41.345213    82.690426 
   17800    1024.3253   -24890.836   -25949.939    163.74568     251.1513    337.60743   -97.521705    41.344716    41.344716    82.689433 
   17900    1033.4037   -24890.873   -25959.362    -187.2635     217.6452   -268.90684   -510.52887    41.345083    41.345083    82.690166 
   18000    1025.9699   -24890.905   -25951.708    93.480071    548.19409   -246.71146   -21.042417    41.345691    41.345691    82.691382 
   18100    1031.0347   -24891.017   -25957.058   -102.67952    169.70419    196.55131   -674.29407    41.346201    41.346201    82.692402 
   18200    1024.6184   -24891.139   -25950.545    -11.10895   -115.15299    248.19303   -166.36689    41.346975    41.346975    82.693951 
   18300    1027.4082   -24891.224   -25953.515   -187.11467    365.47839   -523.03024   -403.79217    41.347759    41.347759    82.695517 
   18400    1016.1159   -24891.212   -25941.827    195.16229    246.22696    212.62234    126.63757    41.348361    41.348361    82.696722 
   18500    1018.6542   -24891.196   -25944.436    55.505661    752.79103   -189.47923   -396.79482    41.348778    41.348778    82.697555 
   18600    1024.3295   -24891.251   -25950.358   -31.840439    306.53626   -147.41208   -254.64551     41.34803     41.34803    82.696059 
   18700    1017.4067   -24891.264   -25943.213     259.5801    102.60481    201.52572    474.60977    41.347076    41.347076    82.694151 
   18800    1023.0576   -24891.328   -25949.121    6.4076455    48.045161    40.708024   -69.530249    41.345863    41.345863    82.691726 
   18900    1025.8081   -24891.427   -25952.063    107.75977    35.240465    44.068554     243.9703    41.344417    41.344417    82.688835 
   19000     1030.803   -24891.559    -25957.36   -56.626924       74.562   -133.28885   -111.15393    41.343265    41.343265    82.686529 
   19100    1040.9138   -24891.699   -25967.953    -186.9177   -552.02875   -33.690668    24.966304    41.342383    41.342383    82.684765 
   19200    1011.5011   -24891.855   -25937.698    501.21637    355.44871   -18.388952    1166.5894    41.342324    41.342324    82.684648 
   19300    1035.8684   -24891.981   -25963.019     -214.779   -194.13663   -469.19485    18.994488    41.343531    41.343531    82.687062 
   19400    1014.1242   -24892.161   -25940.717    313.22922    182.72435    671.32584    85.637467    41.344709    41.344709    82.689417 
   19500    1033.7428   -24892.273   -25961.114   -303.23311   -181.77222   -507.21673   -220.71038    41.346186    41.346186    82.692372 
   19600    1020.9894   -24892.391   -25948.045   -11.960977    331.67191    202.58498   -570.13982    41.347275    41.347275    82.694549 
   19700    1011.8506   -24892.435    -25938.64    231.63353    292.42917     506.1953   -103.72388    41.348401    41.348401    82.696802 
   19800    1036.6127   -24892.474   -25964.281   -448.03621   -445.18095   -925.44665    26.518961    41.348995    41.348995    82.697991 
   19900    1020.1485    -24892.63   -25947.414    63.285061    155.53641    341.59674   -307.27797    41.347709    41.347709    82.695418 
   20000    1028.3386   -24892.654   -25955.906   -207.80636    134.95173    -264.2929   -494.07792    41.346537    41.346537    82.693075 
   20100     1011.631   -24892.651   -25938.629    282.97596    598.29962   -80.402371    331.03063    41.344911    41.344911    82.689822 
   20200    1019.9563   -24892.589   -25947.175    212.49479    96.024387     795.2774    -253.8174    41.343867    41.343867    82.687734 
   20300    1022.7233   -24892.508   -25949.955    148.91162   -356.08607    449.03773     353.7832    41.343615    41.343615    82.687229 
   20400    1012.5587   -24892.391   -25939.328     539.6293    577.54991    842.23081    199.10718    41.344422    41.344422    82.688844 
   20500    1024.8201   -24892.306    -25951.92    74.347322    286.81285    42.541205   -106.31209    41.345723    41.345723    82.691447 
   20600    1028.4882   -24892.204   -25955.611    -142.3386   -75.326254   -397.49741    45.807872    41.347077    41.347077    82.694154 
   20700     1029.612   -24892.079   -25956.648   -209.72896    117.81487   -725.19608   -21.805667    41.348144    41.348144    82.696289 
   20800    1017.7204    -24891.99   -25944.264    16.281779   -44.829014   -118.72228    212.39663    41.348513    41.348513    82.697026 
   20900    1012.3087    -24891.92   -25938.599      221.926    586.28204   -84.993422    164.48939    41.348034    41.348034    82.696068 
   21000    1029.7773   -24891.828   -25956.568   -222.36771   -466.08195    138.44065   -339.46183    41.347581    41.347581    82.695161 
   21100    1027.9451   -24891.766   -25954.612   -79.416991    208.35991    71.070823   -517.68171    41.346589    41.346589    82.693179 
   21200    1032.8079    -24891.74   -25959.614   -233.15691   -113.88028    71.841303   -657.43175    41.345649    41.345649    82.691297 
   21300    1026.5089   -24891.714   -25953.075    76.132691     43.54638    24.630484    160.22121     41.34495     41.34495    82.689899 
   21400    1020.7033   -24891.702    -25947.06    289.85797    772.02006    14.569758    82.984085    41.344696    41.344696    82.689391 
   21500    1036.4362   -24891.754   -25963.379   -231.16566   -708.99974    80.046815   -64.544067    41.344925    41.344925     82.68985 
   21600    1015.9954   -24891.843   -25942.333    356.75522    1319.6847    173.37719   -422.79623    41.345338    41.345338    82.690675 
   21700    1022.9421   -24891.892   -25949.565     64.17014     144.7344    -126.9484    174.72443    41.346661    41.346661    82.693323 
   21800    1020.0595   -24891.919   -25946.611    48.411728    648.79869   -339.44451   -164.11899    41.348222    41.348222    82.696444 
   21900    1035.9445   -24891.907   -25963.023   -361.67121   -1046.5478    173.06366   -211.52947     41.34983     41.34983     82.69966 
   22000    1032.7795   -24891.916    -25959.76   -315.75901     201.9608   -727.98685   -421.25098    41.350617    41.350617    82.701233 
   22100    1029.4007   -24891.921   -25956.272   -296.03189   -220.37132   -78.035227   -589.68912    41.350738    41.350738    82.701475 
   22200    1020.7733   -24891.868   -25947.299   -25.392023    281.79277    209.82991   -567.79874    41.350366    41.350366    82.700731 
   22300    1025.1728   -24891.807   -25951.786   -56.149529   -349.36044    120.53603    60.375816    41.349312    41.349312    82.698625 
   22400     1031.798   -24891.786   -25958.616   -264.04178   -471.97721    117.62362   -437.77175    41.347633    41.347633    82.695267 
   22500    1009.2253   -24891.787   -25935.277    334.53543   -28.441869    620.25967     411.7885    41.345744    41.345744    82.691488 
   22600    1030.0677   -24891.633   -25956.673    49.667247    104.69245    128.73011   -84.420816    41.345061    41.345061    82.690122 
   22700    1036.1734   -24891.496   -25962.849   -169.55011    127.70544   -373.90321   -262.45255    41.344803    41.344803    82.689607 
   22800    1027.0575   -24891.406   -25953.334    147.46753    315.35915    162.05841   -35.014973    41.344944    41.344944    82.689887 
   22900    1016.1446   -24891.401   -25942.046    286.57697    957.21567   -244.23638    146.75161    41.345143    41.345143    82.690286 
   23000    1023.7799   -24891.399   -25949.938    80.809524    122.32203   -379.84396    499.95051    41.345887    41.345887    82.691775 
   23100    1028.1958   -24891.368   -25954.473   -45.112945    428.39723   -395.76528   -167.97079    41.346995    41.346995     82.69399 
   23200    1018.7509    -24891.36   -25944.699    54.575637   -75.773957    136.87825    102.62262    41.348015    41.348015     82.69603 
   23300    1028.9069   -24891.253   -25955.093   -239.84088     163.0196   -554.87602   -327.66622    41.349178    41.349178    82.698356 
   23400    1030.2394   -24891.114   -25956.332   -108.57177    163.81531   -148.44649   -341.08413    41.349982    41.349982    82.699965 
   23500    1019.4646   -24891.059   -25945.136   -83.667852    72.155156   -416.07716    92.918453    41.349888    41.349888    82.699776 
   23600    1021.0105   -24890.958   -25946.633    9.9370334   -279.73143    24.738094    284.80444    41.349534    41.349534    82.699069 
   23700    1026.4476   -24890.891   -25952.188   -139.23645    10.744962   -126.92491   -301.52939    41.348613    41.348613    82.697226 
   23800    1030.6571   -24890.829   -25956.479   -242.56721    416.15738   -582.61146   -561.24755    41.347215    41.347215     82.69443 
   23900    1024.9003   -24890.753    -25950.45   -7.2712759    208.19304    45.736672   -275.74354    41.345741    41.345741    82.691482 
   24000    1026.2337   -24890.649   -25951.726    90.743966   -448.41709    673.50851     47.14047    41.344745    41.344745     82.68949 
   24100    1028.8563   -24890.548   -25954.336   0.28324071   -61.136563     11.77109    50.215195    41.344517    41.344517    82.689034 
   24200    1024.1298   -24890.491   -25949.392    36.201627    156.53482   -174.22598    126.29604    41.344756    41.344756    82.689512 
   24300    1026.3736   -24890.407   -25951.628    93.739691    725.13436    52.820457   -496.73574    41.345702    41.345702    82.691405 
   24400     1027.863   -24890.365   -25953.126   -302.41224    269.24565   -511.91043   -664.57195    41.346781    41.346781    82.693563 
   24500    1026.3082   -24890.257   -25951.411   -69.869969    359.15079    -369.5181    -199.2426    41.347934    41.347934    82.695867 
   24600    1014.6337   -24890.131   -25939.214    173.35735   -277.94037    255.12346    542.88897    41.349176    41.349176    82.698352 
   24700    1016.0231    -24889.98   -25940.499    88.244841    123.76103    98.125488    42.848002    41.349851    41.349851    82.699701 
   24800    1034.8158   -24889.825   -25959.775   -372.29675   -851.21849   -545.47771    279.80594    41.349872    41.349872    82.699745 
   24900    1016.6419   -24889.745   -25940.903     188.5346    194.78144    500.74126   -129.91891    41.348631    41.348631    82.697262 
   25000    1026.4347   -24889.733   -25951.017    5.9833416    264.11293    269.89666   -516.05957    41.346785    41.346785     82.69357 
   25100    1025.0818   -24889.751   -25949.636    100.97757   -84.578145    959.98624   -572.47537    41.344791    41.344791    82.689583 
   25200    1022.0663   -24889.749   -25946.516    259.13458    761.05038    353.81554   -337.46217    41.343873    41.343873    82.687747 
   25300    1031.6148   -24889.689   -25956.329    22.285033   -133.86073    490.68811   -289.97228     41.34457     41.34457    82.689139 
   25400    1023.8106   -24889.647   -25948.218    165.21355    758.11318   -46.794806   -215.67773    41.345796    41.345796    82.691592 
   25500    1027.0504   -24889.585   -25951.506   -82.417315   -685.49414    112.52849    325.71371    41.347638    41.347638    82.695275 
   25600     1028.701   -24889.551   -25953.178   -66.821325   -534.19062   -63.339805    397.06645    41.349208    41.349208    82.698416 
   25700    1016.9134   -24889.633   -25941.073    77.486081    301.10521    133.21415   -201.86112    41.349552    41.349552    82.699104 
   25800    1022.2895   -24889.684   -25946.682   -108.57337    103.47129   -4.9878564   -424.20356    41.349598    41.349598    82.699195 
   25900    1035.1518   -24889.625   -25959.922   -361.37251   -422.88448   -155.05425   -506.17881    41.349944    41.349944    82.699889 
   26000    1025.3096   -24889.587   -25949.708   -89.340385   -219.86875    225.89335   -274.04575     41.34961     41.34961     82.69922 
   26100    1019.3862   -24889.587   -25943.583    79.797073   -156.59929    224.42558    171.56493    41.348651    41.348651    82.697302 
   26200    1030.6762   -24889.571   -25955.241   -156.42799    283.14889   -339.93591   -412.49696    41.347403    41.347403    82.694805 
   26300    1019.5617   -24889.586   -25943.764    184.03126    25.175458    231.83684    295.08147    41.345929    41.345929    82.691858 
   26400    1032.8514   -24889.652   -25957.571   -162.71837   -70.056405    25.787804    -443.8865    41.344495    41.344495     82.68899 
   26500    1010.0932   -24889.696   -25934.084    469.64947     770.9645    589.76723    48.216688     41.34327     41.34327     82.68654 
   26600    1027.8988   -24889.665   -25952.463    68.706322   -241.04825    711.20867   -264.04146    41.343262    41.343262    82.686523 
   26700     1015.095   -24889.664   -25939.223    493.64511    790.22072    86.100903    604.61371    41.343937    41.343937    82.687874 
   26800    1032.7028   -24889.621   -25957.386   -72.708262     194.2166   -143.24909    -269.0923    41.345887    41.345887    82.691774 
   26900    1020.5391   -24889.566   -25944.754    149.95341    627.39598    159.56377   -337.09953    41.348177    41.348177    82.696354 
   27000    1015.7742   -24889.503   -25939.765     131.0533    343.03245     497.9804   -447.85296    41.350381    41.350381    82.700762 
   27100     1036.343   -24889.402   -25960.931   -489.49884   -523.59298   -636.07035    -308.8332    41.352111    41.352111    82.704223 
   27200    1022.5808   -24889.392   -25946.691   -82.461708   -99.658499    240.90954   -388.63617    41.351896    41.351896    82.703792 
   27300    1022.4002   -24889.444   -25946.557   -79.601278   -650.01526    670.62784   -259.41642     41.35033     41.35033     82.70066 
   27400    1018.8762   -24889.425   -25942.894    143.74023   -158.51924    213.77977    375.96018    41.348577    41.348577    82.697154 
   27500    1015.8442    -24889.34   -25939.674     177.7847    472.47679   -207.33595    268.21325    41.346994    41.346994    82.693987 
   27600    1028.8441   -24889.241   -25953.016   -57.627431   -519.65378   -174.10868    520.88017    41.345651    41.345651    82.691303 
   27700    1024.3769   -24889.184    -25948.34    151.07781    62.536159    40.013515    350.68376    41.344577    41.344577    82.689154 
   27800    1019.8592   -24889.189   -25943.674     280.3145    638.11032   -21.189003    224.02218    41.344225    41.344225    82.688449 
   27900    1015.5789   -24889.197   -25939.257    239.90316    6.8595156    153.48021    559.36976    41.345021    41.345021    82.690041 
   28000    1025.0079   -24889.183   -25948.992    77.600088   -255.91372   -133.54352     622.2575    41.346387    41.346387    82.692774 
   28100    1020.2447   -24889.179   -25944.063    76.253156    193.91041   -294.22698    329.07604    41.347956    41.347956    82.695912 
   28200    1034.3366   -24889.196    -25958.65   -252.47518   -448.90707   -439.38687     130.8684    41.349195    41.349195    82.698391 
   28300    1016.1491   -24889.218   -25939.867    271.38245    145.66171   -179.46513    847.95076    41.350019    41.350019    82.700037 
   28400    1030.1373   -24889.134   -25954.247   -271.66487   -405.26829   -158.77494   -250.95137    41.351341    41.351341    82.702683 
   28500    1027.2466   -24889.076     -25951.2   -201.10417   -357.66391    147.27153   -392.92013    41.351765    41.351765    82.703529 
   28600    1017.0687   -24889.063   -25940.663    66.708327    30.878409   -29.025938    198.27251    41.350857    41.350857    82.701714 
   28700    1027.9397   -24889.074   -25951.914   -100.65664   -405.25244    143.39072   -40.108206    41.349176    41.349176    82.698351 
   28800    1019.6775   -24889.103     -25943.4     161.9584   -213.58143    944.36482   -244.90819    41.347152    41.347152    82.694305 
   28900    1026.3112   -24889.107   -25950.264    106.37031    9.5329483    51.125269     258.4527    41.345542    41.345542    82.691084 
   29000    1031.5343   -24889.141   -25955.698    51.275529   -31.702833   -124.53599    310.06541    41.344138    41.344138    82.688277 
   29100    1019.5725   -24889.238   -25943.427     326.9218    709.70325    123.18944    147.87272    41.343277    41.343277    82.686553 
   29200    1029.7599   -24889.335   -25954.057    44.784588   -916.45977    830.15978    220.65376    41.343758    41.343758    82.687517 
   29300    1018.5535   -24889.463   -25942.599    236.85735   -343.94094    304.75765    749.75534    41.344918    41.344918    82.689837 
   29400    1030.6405   -24889.576   -25955.209   -229.08679   -93.013851   -607.82905    13.582521    41.346665    41.346665    82.693329 
   29500    1035.9895    -24889.68   -25960.843   -306.48589   -636.45806   -293.37178    10.372179    41.348266    41.348266    82.696532 
   29600     1018.756    -24889.86   -25943.205   -33.817513    180.19215   -147.58104   -134.06364    41.349112    41.349112    82.698224 
   29700    1031.7664   -24889.985   -25956.782   -134.82088   -285.64647   0.80431231   -119.62049    41.349676    41.349676    82.699351 
   29800    1023.5249   -24890.151   -25948.426   -44.825854    252.10108   -374.43944     -12.1392    41.349498    41.349498    82.698996 
   29900    1029.0359   -24890.273   -25954.247   -149.58388   -863.31617    400.80765    13.756882    41.349071    41.349071    82.698142 
   30000    1023.8174   -24890.352    -25948.93    2.7837612    -95.56812    301.90242   -197.98302     41.34844     41.34844    82.696881 
   30100    1019.8309   -24890.417   -25944.873    98.135493   -938.10053    355.85308    876.65393     41.34739     41.34739     82.69478 
   30200    1036.6716   -24890.465   -25962.334   -245.06361   -608.28797    168.04524   -294.94811    41.346151    41.346151    82.692302 
   30300    1013.2776   -24890.502   -25938.182    399.28139   -367.41716    356.11745    1209.1439    41.345221    41.345221    82.690443 
   30400    1032.5602   -24890.457   -25958.075   -57.256589   -167.03568   -206.58247    201.84838    41.345361    41.345361    82.690721 
   30500    1030.7747   -24890.412   -25956.183   -79.069907   -232.78031   -339.43353    335.00411    41.345676    41.345676    82.691351 
   30600    1023.8359   -24890.429   -25949.026     74.95932    231.91169   -383.12941    376.09568    41.345853    41.345853    82.691706 
   30700    1037.5715   -24890.449   -25963.248   -278.14552   -318.61182   -464.08283   -51.741916    41.346174    41.346174    82.692348 
   30800    1038.5708   -24890.442   -25964.274   -259.13956   -315.37622   -605.05756    143.01511    41.346609    41.346609    82.693219 
   30900    1021.4903   -24890.533   -25946.705    152.90693    9.5166909   -359.21567    808.41977    41.346706    41.346706    82.693412 
   31000    1036.1466   -24890.597   -25961.923   -348.21657    100.24063   -566.71323   -578.17711    41.347392    41.347392    82.694785 
   31100    1013.2152   -24890.718   -25938.334    259.50625    590.47441    24.247218    163.79711    41.347473    41.347473    82.694945 
   31200      1041.08   -24890.759   -25967.186   -444.28451   -869.64676   -374.70414   -88.502638    41.348157    41.348157    82.696313 
   31300    1024.3645    -24890.83   -25949.973   -143.80021    572.56079   -172.45698   -831.50443    41.348502    41.348502    82.697005 
   31400    1021.6405   -24890.851   -25947.178   -18.603655    392.17632   -17.475043   -430.51224    41.348603    41.348603    82.697206 
   31500    1030.6508   -24890.928   -25956.571   -174.12426   -555.31733    86.920437    -53.97589    41.348026    41.348026    82.696052 
   31600       1031.3   -24891.023   -25957.337   -150.78647    -61.24752     -116.208    -274.9039      41.3473      41.3473    82.694599 
   31700    1013.9023   -24891.093   -25939.419    245.06019    -31.49965    473.06642     293.6138    41.346572    41.346572    82.693143 
   31800    1027.9374   -24891.061   -25953.899   -31.507956    5.7009906    323.99236   -424.21722    41.346436    41.346436    82.692872 
   31900    1029.6855   -24891.034   -25955.679   -158.30425   -268.68044   -437.04265    230.81033     41.34633     41.34633    82.692661 
   32000    1022.6165   -24891.064   -25948.401    46.282796    100.71509    226.62918   -188.49588    41.345815    41.345815     82.69163 
   32100    1017.5118   -24891.049   -25943.108    145.03036    172.88712    329.50352   -67.299552    41.345669    41.345669    82.691339 
   32200     1030.301   -24890.958    -25956.24   -243.59036   -89.895715    15.731422    -656.6068    41.345955    41.345955     82.69191 
   32300    1011.3014   -24890.838   -25936.475    309.79948   -195.68172    733.69713    391.38303    41.345942    41.345942    82.691883 
   32400    1031.9242   -24890.709   -25957.669   -182.49984    135.00191   -483.01652    -199.4849    41.346106    41.346106    82.692212 
   32500     1024.349    -24890.68   -25949.808    -15.61884     75.18962    229.86665   -351.91279    41.345695    41.345695    82.691389 
   32600    1028.8929   -24890.629   -25954.454   -66.403176    339.94695   -398.92469   -140.23179    41.345499    41.345499    82.690999 
   32700    1021.5008   -24890.574   -25946.757    161.95083    120.57508   -5.4457823    370.72318    41.345933    41.345933    82.691867 
   32800    1031.8328   -24890.464    -25957.33   -230.67458    5.0344665   -720.78746    23.729257    41.347059    41.347059    82.694118 
   32900    1012.7093   -24890.441   -25937.534    420.17088     696.3126    157.17956    407.02047     41.34752     41.34752     82.69504 
   33000    1030.0861   -24890.354   -25955.413   -164.65496    296.94672    56.480764   -847.39235    41.348557    41.348557    82.697114 
   33100    1013.1067   -24890.252   -25937.755    311.51013   -87.843949     609.8208    412.55355     41.34927     41.34927     82.69854 
   33200    1038.1357   -24890.175   -25963.557   -382.63212   -340.98867    120.40127   -927.30894    41.349735    41.349735     82.69947 
   33300    1016.4176   -24890.195   -25941.122    223.47604    192.36202    141.56305    336.50305    41.348992    41.348992    82.697983 
   33400    1018.5416    -24890.17   -25943.293    73.139151   -46.890995    -350.7115    617.01995    41.348292    41.348292    82.696583 
   33500    1031.5314   -24890.112   -25956.666   -240.27457    -674.8143   -297.49554    251.48613    41.347594    41.347594    82.695187 
   33600     1033.398   -24890.075   -25958.558   -126.89889   -391.48302    348.67889   -337.89256    41.346591    41.346591    82.693182 
   33700    1035.5717   -24890.095   -25960.826   -168.49076   -345.47944    39.782133   -199.77499    41.345616    41.345616    82.691231 
   33800    1021.2332    -24890.16   -25946.066    333.50887    10.250077    136.23667    854.03987    41.345164    41.345164    82.690328 
   33900     1032.383   -24890.258   -25957.692   -102.52546   -126.18428    -131.3268   -50.065305    41.345661    41.345661    82.691321 
   34000    1022.4639   -24890.313   -25947.492    171.53864    258.24062    230.43103    25.944261    41.346862    41.346862    82.693724 
   34100    1030.8455   -24890.343   -25956.188   -171.62489   -508.50614    -244.9418    238.57326    41.348548    41.348548    82.697097 
   34200    1033.2987   -24890.442   -25958.823   -268.56433   -203.36772   -213.45446   -388.87083    41.349491    41.349491    82.698982 
   34300    1021.8058   -24890.542   -25947.041   -91.597042    303.59579   -102.66686   -475.72006    41.349808    41.349808    82.699617 
   34400    1029.0218   -24890.637   -25954.596   -273.36521   -390.45039   -367.40377   -62.241456    41.349571    41.349571    82.699142 
   34500    1021.6048   -24890.718   -25947.009    25.860425    637.58446   -373.38631   -186.61687    41.348712    41.348712    82.697424 
   34600    1023.6746   -24890.846   -25949.276   -12.528012   -7.1104749    217.88437   -248.35794    41.347148    41.347148    82.694296 
   34700    1021.0016   -24890.929   -25946.596    125.78638    425.94629   -267.13072    218.54356    41.345715    41.345715     82.69143 
   34800    1024.2864   -24890.962   -25950.025    20.290231   -207.93804   -317.82673    586.63547    41.344855    41.344855     82.68971 
   34900    1031.6579   -24890.931   -25957.616    -186.2422    247.92636   -678.40174   -128.25122    41.344739    41.344739    82.689478 
   35000    1028.7376   -24890.835     -25954.5   -58.968202    149.87688   -212.06881   -114.71268    41.345166    41.345166    82.690332 
   35100    1037.5387   -24890.748   -25963.513   -263.47222    -398.6897    -454.4771    62.750135     41.34603     41.34603    82.692061 
   35200     1028.202   -24890.747   -25953.859   -158.42305    131.33073   -460.02253   -146.57735    41.346979    41.346979    82.693958 
   35300    1034.5836   -24890.717   -25960.427    -244.3584   -389.31745    -475.0809    131.32317    41.348133    41.348133    82.696267 
   35400    1019.6064   -24890.771   -25944.995     94.17062   -150.85553    71.388852    361.97854    41.348324    41.348324    82.696647 
   35500    1035.3355   -24890.808   -25961.295   -317.18892   -315.79022   -293.98392   -341.79262    41.348346    41.348346    82.696693 
   35600    1026.9531   -24890.889   -25952.709    -100.3523   -301.65555    26.502645   -25.903994    41.347702    41.347702    82.695404 
   35700    1008.0675   -24890.927    -25933.22    419.31587    902.74439    440.53106   -85.327853    41.346874    41.346874    82.693748 
   35800    1033.3208   -24890.888   -25959.292   -261.78192   -495.28875   -61.204894   -228.85211     41.34661     41.34661     82.69322 
   35900    1025.0848   -24890.949   -25950.837    113.05444    274.87443    513.17738   -448.88848     41.34552     41.34552     82.69104 
   36000    1028.3671   -24891.031   -25954.313   -103.39827   -283.35687    20.960898   -47.798853    41.344716    41.344716    82.689431 
   36100    1035.1571   -24891.129   -25961.431   -117.42773   -81.143456    98.808065   -369.94779    41.344127    41.344127    82.688253 
   36200    1022.0747   -24891.287   -25948.063    150.99372    313.53747   -13.766486    153.21019    41.343721    41.343721    82.687442 
   36300    1027.1977   -24891.472   -25953.545    98.158137   -258.62109    600.48713   -47.391633    41.343748    41.343748    82.687497 
   36400    1021.9418   -24891.581    -25948.22    291.46329   -264.20334     220.4325    918.16071    41.344842    41.344842    82.689683 
   36500    1026.5777   -24891.676   -25953.108   -8.1428031   -285.17101   -316.00436    576.74696    41.346669    41.346669    82.693338 
   36600    1030.1126   -24891.758   -25956.845   -380.28686   -739.14952    97.495858    -499.2069    41.348614    41.348614    82.697227 
   36700    1024.9494   -24891.892   -25951.641   -162.36324    280.87072   -329.89007   -438.07038    41.349279    41.349279    82.698558 
   36800    1026.0586   -24891.982   -25952.877   -286.04501   -145.70684   -241.60096   -470.82723    41.349218    41.349218    82.698436 
   36900    1024.1126   -24892.001   -25950.884   -155.71596   -638.49563    69.903447    101.44431    41.348392    41.348392    82.696785 
   37000    1027.1746   -24891.993   -25954.043   -46.300032    132.97088   -534.37829    262.50732    41.347003    41.347003    82.694007 
   37100    1015.9509   -24891.988   -25942.432    108.83681   -104.22273    231.28507    199.44807    41.345609    41.345609    82.691217 
   37200    1022.6068   -24891.945   -25949.272    273.35763    353.96807   -268.61135    734.71617    41.344689    41.344689    82.689379 
   37300    1023.1918   -24891.937   -25949.868    182.67069    306.15829    22.226782      219.627    41.344298    41.344298    82.688595 
   37400    1037.4665   -24891.929    -25964.62   -195.29063   -425.99742   -633.38216    473.50769    41.344411    41.344411    82.688821 
   37500     1024.555   -24891.941   -25951.281    45.586288    158.16694    258.78896   -280.19703    41.344659    41.344659    82.689318 
   37600    1031.6925   -24891.935   -25958.655   -177.60344   -72.625665   -514.89753    54.712876    41.345186    41.345186    82.690372 
   37700    1031.5075   -24891.979   -25958.509   -122.11506   -286.83091    374.12184    -453.6361    41.345594    41.345594    82.691188 
   37800    1026.9115   -24891.981   -25953.758    13.947589   -385.53934    450.31081   -22.928704      41.3464      41.3464      82.6928 
   37900     1037.031   -24891.968   -25964.208   -380.18971   -73.377226   -398.38318   -668.80874    41.347385    41.347385    82.694771 
   38000     1018.947   -24891.947    -25945.49    49.565792    62.804258   -150.03993    235.93305    41.348058    41.348058    82.696116 
   38100    1022.6065   -24891.821   -25949.147   -72.041523    121.51994   -9.4988589   -328.14565    41.348931    41.348931    82.697862 
   38200    1033.5621   -24891.699   -25960.352   -421.84406   -567.24599   -925.86349     227.5773     41.34903     41.34903    82.698059 
   38300    1020.5664   -24891.643    -25946.86   0.74874477   -439.99143    16.498609    425.73906    41.347889    41.347889    82.695779 
   38400    1021.5506   -24891.565   -25947.799    55.321071   -94.092692   -309.07086    569.12677    41.346506    41.346506    82.693012 
   38500    1025.3895   -24891.529   -25951.732    74.713488    -233.1812   -116.48763     573.8093    41.345043    41.345043    82.690086 
   38600    1020.2922   -24891.521   -25946.454    344.98458    93.134216   -337.65056    1279.4701    41.343924    41.343924    82.687849 
   38700    1031.4553   -24891.497   -25957.972   -33.808466    223.48821    217.11871   -542.03231    41.343943    41.343943    82.687887 
   38800    1008.0798   -24891.546   -25933.852    538.44858    361.24539    700.96957    553.13078    41.344079    41.344079    82.688157 
   38900     1031.145   -24891.515   -25957.669   -99.692887   -276.63591    205.93111   -228.37386    41.345483    41.345483    82.690967 
   39000    1022.7463   -24891.513   -25948.984    60.649554   -385.49419     214.3243    353.11854    41.346998    41.346998    82.693996 
   39100    1017.3215   -24891.531   -25943.392    98.248471   -314.77298    547.20783     62.31056    41.348201    41.348201    82.696402 
   39200    1018.9675   -24891.533   -25945.097   -72.002961   -147.45782    76.089693   -144.64076    41.348928    41.348928    82.697855 
   39300    1021.5176   -24891.519   -25947.719   -96.078181    177.44957   -709.41293    243.72882    41.349046    41.349046    82.698091 
   39400    1014.7026   -24891.537   -25940.691    103.71614    291.21737     -664.283    684.21405    41.348169    41.348169    82.696339 
   39500    1018.5167     -24891.5   -25944.597    94.350771   -238.42906    378.87612    142.60526    41.346912    41.346912    82.693824 
   39600    1037.0365   -24891.445    -25963.69   -288.68154    4.4162635   -41.841164   -828.61973    41.345728    41.345728    82.691456 
   39700    1018.7047   -24891.444   -25944.735    230.27076    324.56045    210.68682      155.565    41.344406    41.344406    82.688812 
   39800     1026.122    -24891.45    -25952.41    78.541586    456.08042   -613.97229    393.51663    41.343692    41.343692    82.687384 
   39900    1028.6951   -24891.473   -25955.094    66.659341    12.758491    575.18772   -387.96819    41.343429    41.343429    82.686857 
   40000    1017.0032   -24891.509   -25943.041    283.65179    192.81315    793.57904   -135.43682    41.343857    41.343857    82.687713 
   40100    1024.1494   -24891.547   -25950.468    19.120502   -247.72774     259.5096    45.579649    41.344932    41.344932    82.689864 
   40200    1017.3263   -24891.596   -25943.463     225.7492    343.10095    431.77641   -97.629778     41.34589     41.34589    82.691779 
   40300    1036.5208   -24891.673   -25963.385   -470.19702   -93.173704   -3.0082734   -1314.4091    41.346683    41.346683    82.693365 
   40400    1018.5778   -24891.735   -25944.896    57.181754    -688.4531     469.1646    390.83376    41.347139    41.347139    82.694277 
   40500    1023.7464   -24891.738   -25950.243   -50.221168   -421.47646    262.86396    7.9489987    41.347781    41.347781    82.695563 
   40600    1022.4526    -24891.73   -25948.897    20.893408      100.938     413.5047   -451.76248    41.348249    41.348249    82.696498 
   40700    1027.6234   -24891.699   -25954.212   -79.223509   -221.97825   -466.02375    450.33148     41.34849     41.34849     82.69698 
   40800    1013.8621   -24891.718   -25940.003    212.26453    44.851037    11.159796    580.78275    41.347948    41.347948    82.695896 
   40900     1023.097   -24891.739   -25949.572     161.1608    88.836497   -283.92324    678.56914    41.347217    41.347217    82.694435 
   41000    1025.4057   -24891.722   -25951.943    102.68521    146.62525    323.94828   -162.51789    41.346834    41.346834    82.693668 
   41100    1024.0537    -24891.72   -25950.542    -53.71697   -215.07337    -164.2405    218.16296    41.346499    41.346499    82.692998 
   41200    1014.8966   -24891.706    -25941.06    352.10382    733.46302    243.83569    79.012745    41.346051    41.346051    82.692102 
   41300    1032.7055   -24891.672    -25959.44   -166.60767    286.27452   -243.40485   -542.69267    41.346199    41.346199    82.692398 
   41400    1023.9833   -24891.654   -25950.403    -76.90641   -99.687732    285.24479   -416.27629    41.346362    41.346362    82.692723 
   41500    1024.6784   -24891.615   -25951.083    14.490769    126.63405    223.12629   -306.28803    41.346466    41.346466    82.692933 
   41600    1023.6056   -24891.582   -25949.941   -17.895485    -361.0677    160.34748    147.03377     41.34658     41.34658    82.693161 
   41700    1017.5097   -24891.575   -25943.631    198.36532     84.41068    28.566969    482.11833    41.346206    41.346206    82.692412 
   41800     1018.437   -24891.518   -25944.532    158.22947    8.3460072    114.29216    352.05024    41.346171    41.346171    82.692342 
   41900    1030.4814   -24891.434   -25956.903   -148.91492   -23.181513   -131.57266   -291.99058    41.346562    41.346562    82.693124 
   42000    1018.0675   -24891.325   -25943.958    146.09678   -42.461046    139.12735    341.62404    41.347168    41.347168    82.694337 
   42100     1026.317   -24891.239   -25952.402   -213.76724   -384.42054    -116.7833   -140.09789    41.347584    41.347584    82.695168 
   42200    1032.7061   -24891.142    -25958.91   -147.99286    -652.1046     411.0261   -202.90007    41.347539    41.347539    82.695077 
   42300    1027.0864   -24891.064   -25953.022   -167.93602    42.000898   -126.14991   -419.65903    41.347763    41.347763    82.695526 
   42400    1022.1457   -24890.955   -25947.804   -33.878842    79.509956    462.46939   -643.61588    41.348083    41.348083    82.696167 
   42500    1022.7359   -24890.887   -25948.347    -38.04174   -178.86912   -109.35907    174.10297    41.347705    41.347705    82.695411 
   42600    1031.9256   -24890.813   -25957.774   -145.46322   -187.57456    278.39262   -527.20773    41.346865    41.346865     82.69373 
   42700    1035.7908   -24890.767   -25961.725   -311.31966    22.280457   -357.51316   -598.72629    41.345901    41.345901    82.691802 
   42800    1021.0961   -24890.726    -25946.49    200.68367     289.9612   -47.095456    359.18528    41.344957    41.344957    82.689914 
   42900    1024.5959   -24890.637    -25950.02    160.80155    26.086159    57.425388     398.8931    41.344887    41.344887    82.689773 
   43000    1028.0222   -24890.559   -25953.484   -112.10894   -207.66157    172.12314    -300.7884    41.345357    41.345357    82.690715 
   43100    1017.8697   -24890.483   -25942.911    242.91361    -133.8098    400.27751    462.27312    41.346235    41.346235     82.69247 
   43200    1026.2164   -24890.393   -25951.452   -127.90868   -324.28841      688.971   -748.40862    41.347734    41.347734    82.695467 
   43300    1028.8586   -24890.316   -25954.106   -181.54494   -283.07193    17.126105   -278.68901    41.348892    41.348892    82.697784 
   43400     1029.855   -24890.256   -25955.076   -88.669324   -39.452214    249.23762   -475.79338    41.349517    41.349517    82.699034 
   43500    1019.9786   -24890.149   -25944.758    -130.1948   -65.134889   -113.34447   -212.10503    41.350239    41.350239    82.700479 
   43600    1021.3676   -24890.054   -25946.099   -143.32332   -365.51575   -466.24709    401.79287     41.35023     41.35023     82.70046 
   43700    1027.1597   -24890.005   -25952.039   -176.99452   -356.16743   -21.065495   -153.75062    41.349206    41.349206    82.698412 
   43800    1026.6063   -24889.969    -25951.43    39.208396     759.8252   -169.45344   -472.74658    41.347665    41.347665    82.695329 
   43900    1010.6089   -24890.022   -25934.942    503.62491     672.5867   -38.180478    876.46851    41.345718    41.345718    82.691436 
   44000    1027.5954   -24890.055   -25952.539    17.472504   -79.886407   -272.04438     404.3483     41.34436     41.34436    82.688719 
   44100    1013.5127   -24890.146    -25938.07    467.85775    513.98443    387.25447    502.33436    41.343431    41.343431    82.686863 
   44200    1024.1389   -24890.263   -25949.173    242.46739    758.83071   -27.984783   -3.4437552    41.343416    41.343416    82.686831 
   44300    1030.9181   -24890.376   -25956.296    17.061534   -178.36348     376.8821   -147.33401    41.344467    41.344467    82.688935 
   44400    1031.9382   -24890.519   -25957.493    87.540477   -530.86487    626.57966    166.90665    41.345926    41.345926    82.691852 
   44500    1027.7053   -24890.711   -25953.309   -133.99546    6.8977752    -622.3979    213.51374    41.347623    41.347623    82.695247 
   44600    1020.8306    -24890.86   -25946.349    82.524184    442.61349   -305.34327    110.30234    41.349202    41.349202    82.698403 
   44700    1029.7932   -24890.965   -25955.722   -343.42202   -840.60222    52.241491   -241.90534    41.350673    41.350673    82.701345 
   44800    1023.4908   -24891.068   -25949.308   -249.70787    39.432278   -185.68797   -602.86792      41.3511      41.3511      82.7022 
   44900    1027.1089   -24891.066   -25953.047   -247.38643   -556.45967   -651.93461      466.235     41.35085     41.35085    82.701699 
   45000    1022.4285   -24890.954   -25948.096   -98.895798   -182.51954     177.2358   -291.40365    41.350103    41.350103    82.700207 
   45100    1021.2031   -24890.836   -25946.711   -63.465317    194.11827    119.00547   -503.51969    41.348414    41.348414    82.696829 
   45200    1019.8349    -24890.78    -25945.24    192.98344   -352.29818    192.92169    738.32682    41.346118    41.346118    82.692235 
   45300    1029.8371   -24890.721   -25955.523    83.389848    619.81236   -460.07784     90.43502    41.344288    41.344288    82.688577 
   45400    1028.7959   -24890.679   -25954.404    75.039622    277.00664    53.419971   -105.30774    41.343405    41.343405     82.68681 
   45500    1022.0662   -24890.661   -25947.428    274.88263    449.53274    523.26051   -148.14537    41.343642    41.343642    82.687283 
   45600     1021.193   -24890.639   -25946.504    265.81001    440.74285    337.83571    18.851478    41.345011    41.345011    82.690022 
   45700    1036.0914   -24890.636   -25961.905   -266.25202   -683.16234   -374.00461    258.41089    41.347026    41.347026    82.694052 
   45800    1026.1056   -24890.683   -25951.627    -110.1717   -340.38122    221.20359   -211.33748    41.348779    41.348779    82.697557 
   45900    1021.2741   -24890.699   -25946.647    7.3590951    275.32226   -166.75188   -86.493101    41.350327    41.350327    82.700654 
   46000     1023.432   -24890.736   -25948.915   -140.72154   -183.12494   -765.07485    526.03517    41.350917    41.350917    82.701833 
   46100    1034.8744   -24890.782   -25960.792   -299.12811   -973.49389   -7.5844277    83.693999    41.350404    41.350404    82.700807 
   46200    1015.8638   -24890.872   -25941.226    177.49274    103.85736   -40.098578    468.71944    41.348678    41.348678    82.697356 
   46300    1038.0364   -24890.909   -25964.188   -365.85994   -752.80679   -565.00469    220.23168    41.347062    41.347062    82.694124 
   46400    1023.1061   -24890.994   -25948.837    127.37049   -393.57421    240.28181    535.40388    41.344989    41.344989    82.689978 
   46500    1024.7309   -24891.056   -25950.578    291.79983    597.91993   -260.44649    537.92605     41.34356     41.34356    82.687119 
   46600    1019.0378   -24891.177   -25944.813    427.78445    385.51205    296.14359    601.69771    41.343006    41.343006    82.686012 
   46700    1044.5029   -24891.261   -25971.227   -343.38701   -196.99163   -918.29016     85.12077    41.343909    41.343909    82.687818 
   46800    1020.4154   -24891.374   -25946.435    101.08567    628.00957   -694.28852    369.53595    41.345253    41.345253    82.690507 
   46900    1027.8064    -24891.42   -25954.122   -167.15668   -557.27419   -211.18413    266.98829    41.347313    41.347313    82.694626 
   47000    1023.2109   -24891.473   -25949.424   -43.967073    97.337811   -27.435821   -201.80321    41.348776    41.348776    82.697552 
   47100    1027.6711   -24891.546   -25954.108    -224.4573    142.98569   -685.09942   -131.25817    41.349385    41.349385    82.698771 
   47200    1010.0074   -24891.541    -25935.84    214.33009    368.00158    25.947679    249.04101    41.349597    41.349597    82.699194 
   47300     1019.322   -24891.452   -25945.381    39.676938    108.16925    142.78458   -131.92302    41.349712    41.349712    82.699424 
   47400    1027.0358    -24891.39   -25953.296   -132.83896    77.375934   -225.54379   -250.34902    41.349094    41.349094    82.698188 
   47500    1020.4612   -24891.404   -25946.512    73.616795    848.98103   -403.90818   -224.22246    41.347347    41.347347    82.694693 
   47600    1027.8034   -24891.406   -25954.106   -64.234414    84.486461    42.963029   -320.15273    41.345457    41.345457    82.690914 
   47700    1029.1562   -24891.396   -25955.493   -53.748372    76.658144    499.92814    -737.8314    41.343823    41.343823    82.687646 
   47800    1030.9581   -24891.381   -25957.342   -46.316465   -118.34974    558.40814    -579.0078    41.342807    41.342807    82.685613 
   47900    1012.3528   -24891.392   -25938.117    546.72802    592.61743    707.29022     340.2764    41.342541    41.342541    82.685082 
   48000    1032.4464   -24891.387   -25958.886   -54.009634    476.78295     7.400303   -646.21215    41.343517    41.343517    82.687034 
   48100    1012.4085   -24891.447   -25938.229    307.35581    447.28107    687.19306   -212.40668    41.344683    41.344683    82.689366 
   48200    1018.8888   -24891.427   -25944.909    136.37179   -214.02618    85.689611    537.45194    41.346415    41.346415    82.692829 
   48300    1028.3238   -24891.381   -25954.618   -211.07365    64.362741   -82.300965   -615.28272    41.348091    41.348091    82.696182 
   48400    1022.1222   -24891.433   -25948.258   -53.806618   -563.72541    289.96962    112.33594    41.348591    41.348591    82.697182 
   48500    1030.5507   -24891.413   -25956.953   -358.59096    -495.1767    367.63763   -948.23381    41.348915    41.348915     82.69783 
   48600     1013.696   -24891.277    -25939.39    190.56786    406.60387    152.88044    12.219271    41.349036    41.349036    82.698072 
   48700     1024.966   -24891.095   -25950.861   -124.09864   -416.97146    163.07951   -118.40398    41.349088    41.349088    82.698176 
   48800    1032.6965   -24890.839   -25958.598   -252.13541   -628.38229   -68.698466   -59.325487    41.349291    41.349291    82.698582 
   48900    1011.9165   -24890.676   -25936.949    179.87582    192.01644    256.56013    91.050875    41.348475    41.348475    82.696951 
   49000    1021.9564   -24890.484   -25947.138     46.17482   -212.87863   -543.24291      894.646    41.347442    41.347442    82.694883 
   49100    1022.0392    -24890.32   -25947.059    115.25672    397.76752    269.01636   -321.01372    41.346191    41.346191    82.692382 
   49200    1022.2589   -24890.169   -25947.135    112.65885    376.12773    -729.2572    691.10603    41.345291    41.345291    82.690582 
   49300    1025.7015   -24890.028   -25950.554     81.95287    533.42092   -331.90842    44.346106    41.344937    41.344937    82.689874 
   49400    1032.8681   -24889.969   -25957.905   -65.605545     68.24516   -436.78209    171.72029    41.344738    41.344738    82.689477 
   49500    1021.6278   -24889.979   -25946.293    232.99213    489.87475    81.923532     127.1781    41.344823    41.344823    82.689647 
   49600    1027.9863   -24889.973   -25952.862    34.060124    452.99634    18.182168   -368.99814    41.345643    41.345643    82.691286 
   49700    1022.8147   -24889.962   -25947.504    77.617339     511.2259   -170.97655   -107.39734    41.347085    41.347085    82.694169 
   49800    1040.9127   -24889.944   -25966.198   -412.35329   -898.06943    106.44516    -445.4356    41.348738    41.348738    82.697476 
   49900    1031.3788   -24889.995   -25956.391   -193.83597   -57.597727   -324.41218   -199.49801    41.349838    41.349838    82.699676 
   50000    1015.8249   -24890.036    -25940.35    152.09542    292.73683    184.79793   -21.248494    41.350723    41.350723    82.701445 
Loop time of 1463.64 on 1 procs for 50000 steps with 8000 atoms

Pair  time (%) = 1322.77 (90.3753)
Neigh time (%) = 99.7823 (6.8174)
Comm  time (%) = 8.64224 (0.590462)
Outpt time (%) = 0.627352 (0.0428624)
Other time (%) = 31.8189 (2.17395)

Nlocal:    8000 ave 8000 max 8000 min
Histogram: 1 0 0 0 0 0 0 0 0 0
Nghost:    9097 ave 9097 max 9097 min
Histogram: 1 0 0 0 0 0 0 0 0 0
Neighs:    292904 ave 292904 max 292904 min
Histogram: 1 0 0 0 0 0 0 0 0 0

Total # of neighbors = 292904
Ave neighs/atom = 36.613
Neighbor list builds = 5000
Dangerous builds = 0
unfix		1

# Melt half the system
region  liquid block INF INF INF INF INF ${nzhalf}
region  liquid block INF INF INF INF INF 10
group	liquid_group region liquid
3997 atoms in group liquid_group

# Heat up one side to Tmelt to make sure it is melted
fix 2 liquid_group npt temp ${Tmelt} ${Tmelt} 1 z 0 0 10 drag 1.0
fix 2 liquid_group npt temp 2000 ${Tmelt} 1 z 0 0 10 drag 1.0
fix 2 liquid_group npt temp 2000 2000 1 z 0 0 10 drag 1.0
run		${eqsteps}
run		50000
Memory usage per processor = 5.95825 Mbytes
Step Temp TotEng PotEng Press Pxx Pyy Pzz Lx Ly Lz 
   50000    1015.8249   -24890.036    -25940.35    152.09542    292.73683    184.79793   -21.248494    41.350723    41.350723    82.701445 
   50100    1016.9167   -24887.633   -25939.076    159.34183    579.34203   -160.16799    58.851441    41.350723    41.350723     82.70146 
   50200    1015.9157   -24881.919   -25932.327    313.94412    687.58036    4.1635954    250.08841    41.350723    41.350723    82.701566 
   50300    1018.9034   -24876.178   -25929.675    426.75479   -94.765051    731.29582    643.73361    41.350723    41.350723    82.701822 
   50400    1033.5304   -24870.708   -25939.328    296.43511    190.96329    52.510272    645.83175    41.350723    41.350723    82.702385 
   50500    1027.6516   -24864.726   -25927.269     576.3934    729.52284    120.46107    879.19628    41.350723    41.350723    82.703327 
   50600     1028.459   -24858.293    -25921.67    646.49705    686.36272    480.26769    772.86073    41.350723    41.350723    82.704708 
   50700    1037.5013   -24851.648   -25924.374    640.18408     384.4067     255.9367    1280.2088    41.350723    41.350723    82.706532 
   50800    1033.6183    -24844.95   -25913.662     977.4621    1128.0183    936.32728    868.04073    41.350723    41.350723    82.708952 
   50900    1038.1864   -24838.133   -25911.568    1067.6839    937.85053    454.99459    1810.2066    41.350723    41.350723    82.711897 
   51000    1044.9737   -24831.272   -25911.725    1104.3689     1717.615     399.5802    1195.9115    41.350723    41.350723    82.715645 
   51100    1048.5991   -24824.283   -25908.484    1177.0448    1528.2535    500.25243    1502.6286    41.350723    41.350723    82.720097 
   51200    1048.5841   -24817.216   -25901.401    1272.3697    885.53364    1134.3061    1797.2693    41.350723    41.350723    82.725214 
   51300    1051.6361   -24810.191   -25897.532    1488.6969    1615.8728    1376.0515    1474.1664    41.350723    41.350723     82.73104 
   51400    1054.4655   -24803.066   -25893.332    1585.2992    1226.0154    1817.8489    1712.0334    41.350723    41.350723    82.737542 
   51500    1063.3318   -24795.944   -25895.378    1500.4961    1626.9743    1126.1559     1748.358    41.350723    41.350723    82.744916 
   51600     1065.903   -24788.699   -25890.792    1555.4718    1573.9297    1313.2333    1779.2523    41.350723    41.350723     82.75319 
   51700    1071.6029   -24781.537   -25889.523    1676.1388     1598.438    1552.5796    1877.3989    41.350723    41.350723    82.762348 
   51800    1073.6434   -24774.254    -25884.35    1683.6287    1715.6596    1741.9803    1593.2462    41.350723    41.350723    82.772374 
   51900     1074.947   -24767.005   -25878.449    1801.9841    1388.5159    1974.5445     2042.892    41.350723    41.350723    82.783201 
   52000    1063.0903   -24759.698   -25858.882     2283.361    2402.0156    2253.5121    2194.5553    41.350723    41.350723    82.794857 
   52100    1080.5266   -24752.404   -25869.616    2052.8793    1804.1575    2080.5266    2273.9537    41.350723    41.350723     82.80739 
   52200    1081.2788   -24745.009   -25862.999     2151.015    2095.5718    2104.9782    2252.4949    41.350723    41.350723    82.820903 
   52300    1086.8736   -24737.689   -25861.464    1976.5332     2086.242    1477.8443    2365.5132    41.350723    41.350723    82.835423 
   52400    1089.1209   -24730.237   -25856.335    2117.3733    2430.9305    1897.6997    2023.4896    41.350723    41.350723    82.850978 
   52500    1093.7732   -24722.798   -25853.707    2129.1547    2399.8793    2001.7803    1985.8044    41.350723    41.350723    82.867397 
   52600    1091.0833   -24715.355   -25843.483    2313.6306     2307.018    1959.6043    2674.2694    41.350723    41.350723    82.884702 
   52700    1101.3756   -24707.891    -25846.66     2119.535    2018.0233    2183.4792    2157.1025    41.350723    41.350723    82.902941 
   52800      1094.12   -24700.338   -25831.606    2406.6794    2719.8062    2023.4751    2476.7569    41.350723    41.350723    82.921995 
   52900    1105.5506   -24692.852   -25835.938    2224.3116    2314.9584     2314.531    2043.4452    41.350723    41.350723    82.941897 
   53000    1098.6689   -24685.278   -25821.249    2374.6566    3590.1588     1854.974    1678.8369    41.350723    41.350723    82.962458 
   53100    1106.6593   -24677.702   -25821.934     2412.742    2407.1953    2892.4063    1938.6244    41.350723    41.350723    82.983526 
   53200    1119.7323   -24670.101    -25827.85    2139.0883    2115.2244    2048.1676    2253.8728    41.350723    41.350723    83.005188 
   53300    1111.2432   -24662.427   -25811.399    2315.3088    2490.4696    2130.8944    2324.5624    41.350723    41.350723    83.027481 
   53400    1112.3441    -24654.81    -25804.92    2248.5444    2205.8443     2365.928    2173.8609    41.350723    41.350723    83.050351 
   53500    1126.9024   -24647.108   -25812.271      2030.74    2035.2586    2150.1151    1906.8463    41.350723    41.350723    83.073756 
   53600    1125.6202    -24639.44   -25803.277    2192.3356    2193.1748    2161.7547    2222.0775    41.350723    41.350723     83.09768 
   53700    1134.3244   -24631.752   -25804.589    1909.7134    2010.8366    1645.0155     2073.288    41.350723    41.350723    83.122238 
   53800    1132.3648   -24623.967   -25794.778    2068.2605    2513.0879    1548.3303    2143.3633    41.350723    41.350723    83.147406 
   53900    1136.5182   -24616.251   -25791.357    2052.0885    2360.8446    2034.2965    1761.1243    41.350723    41.350723    83.173032 
   54000     1134.187   -24608.466   -25781.161    2175.7438    2095.9113    2423.2472     2008.073    41.350723    41.350723    83.199016 
   54100    1139.1495   -24600.713   -25778.539    1967.8367    2361.9991    1669.6876    1871.8234    41.350723    41.350723    83.225417 
   54200    1134.7943   -24592.943   -25766.266    1991.4955     2096.059    2024.6546    1853.7729    41.350723    41.350723    83.252238 
   54300    1137.5823   -24585.047   -25761.252     2043.988    1745.6206    2654.8572    1731.4861    41.350723    41.350723    83.279377 
   54400    1158.4671   -24577.184   -25774.984    1767.2745    1912.3885    2330.9273    1058.5077    41.350723    41.350723    83.306706 
   54500    1146.3336   -24569.288   -25754.542    1895.6287    1578.2311    2136.1903    1972.4646    41.350723    41.350723    83.334033 
   54600    1157.2233    -24561.39   -25757.904     1851.614    1887.7268    2108.6951    1558.4199    41.350723    41.350723     83.36152 
   54700    1155.5847   -24553.456   -25748.275    1765.7565    2108.3043    1545.1995    1643.7658    41.350723    41.350723    83.388997 
[...]
  336300    1028.2014   -24652.109    -25715.22    671.80851    1340.4688     719.9124    -44.95565    41.246324    41.246324    83.997524 
  336400    1033.9216    -24652.12   -25721.145     321.8345   -395.89058    574.41652    786.97756    41.247283    41.247283    84.021736 
  336500    1012.0295   -24652.183   -25698.573     195.2458   -496.01819    465.04253    616.71305    41.248142    41.248142    84.109181 
  336600    1019.9057   -24652.153   -25706.687   -786.33388   -515.61621   -1092.0969   -751.28849     41.24872     41.24872    84.202815 
  336700    1020.9046   -24652.157   -25707.723   -838.19057   -486.65754    -518.5343   -1509.3799    41.248871    41.248871    84.206099 
  336800    1019.6541    -24652.25   -25706.523     128.4108    11.837714    361.66777    11.726927    41.248664    41.248664    84.097434 
  336900    1032.8374   -24652.182   -25720.086    348.39884   -28.878331   -137.89591    1211.9708    41.248382    41.248382    84.018336 
  337000      1032.57   -24652.182    -25719.81   -46.070447   -620.72505    638.97762   -156.46391      41.2481      41.2481    84.043009 
  337100    1014.2108   -24652.211   -25700.856   -34.749032    174.12105   -731.81439    453.44624    41.247852    41.247852    84.092562 
  337200    1023.7581   -24652.206   -25710.723   -628.81236   -897.02366   -618.43088   -370.98253     41.24745     41.24745    84.164173 
  337300    1029.2388     -24652.2   -25716.384   -747.95139   -855.53899   -264.09196   -1124.2232    41.246817    41.246817    84.182524 
  337400    1025.5654    -24652.24   -25712.626   -343.95491   -751.42199    365.10531   -645.54807    41.246029    41.246029     84.11713 
  337500    1031.8496   -24652.247    -25719.13    263.55696    759.38708    101.56932    -70.28552    41.245223    41.245223    84.027492 
  337600    1031.4807   -24652.226   -25718.728    651.63367   -56.376965    1312.8059    698.47207    41.244708    41.244708    83.970297 
  337700    1027.8183   -24652.241   -25714.956    710.67795   -62.542177    1173.4702    1021.1059    41.244662    41.244662    83.974612 
  337800    1016.8752    -24652.27    -25703.67    394.33653   -292.65923    1326.5346    149.13419    41.244925    41.244925    84.055986 
  337900    1028.6715    -24652.25   -25715.847   -139.30733    65.585228    56.626106   -540.13332    41.245326    41.245326    84.119057 
  338000    1028.7002   -24652.245   -25715.871   -380.88909   -1005.7582    228.42896   -365.33803    41.245692    41.245692    84.119898 
  338100    1027.8304   -24652.254   -25714.981    34.961781   -483.03402   -108.66635    696.58571    41.245873    41.245873     84.07673 
  338200    1038.0089   -24652.261   -25725.513   -166.58842    313.23428   -1115.8074    302.80786     41.24588     41.24588    84.072783 
  338300    1035.4647   -24652.272   -25722.892   -440.08351   -570.39953   -265.48989    -484.3611    41.245792    41.245792    84.124233 
  338400    1036.9022   -24652.258   -25724.365   -640.94291   -442.38775   -1250.6768   -229.76418    41.245496    41.245496    84.164774 
  338500    1034.3924   -24652.265   -25721.777   -733.12652   -1013.9526   -675.67844   -509.74853    41.244913    41.244913    84.158142 
  338600    1031.0781   -24652.287   -25718.372   -202.68141    -167.5452   -794.56492    354.06588    41.244176    41.244176    84.100916 
  338700    1023.2032   -24652.279   -25710.222    348.71691    742.53178   -5.6438471    309.26281    41.243477    41.243477    84.046766 
  338800    1031.1472   -24652.273   -25718.429    529.59982    265.71493    367.90329    955.18125    41.243037    41.243037    84.011843 
  338900    1023.7864   -24652.294    -25710.84    467.73743    107.51621    790.04045    505.65562    41.242804    41.242804    84.051984 
  339000    1027.0288   -24652.292    -25714.19   -118.67481   -300.38942    273.11236   -328.74736    41.242716    41.242716    84.115574 
  339100    1031.0894   -24652.285   -25718.382   -557.82217   -628.72817   -321.34364   -723.39468    41.242635    41.242635    84.137711 
  339200    1029.0919   -24652.283   -25716.315   -291.18363   -1148.3217    97.601709    177.16912    41.242417    41.242417    84.123062 
  339300    1021.1263   -24652.281   -25708.076    -35.35067   -512.07075    21.275316    384.74342    41.242032    41.242032    84.123845 
  339400    1039.6411   -24652.285   -25727.224   -520.46059   -757.70452   -554.20212   -249.47513    41.241574    41.241574    84.145238 
  339500    1016.7211    -24652.28   -25703.521   -106.27056   -412.43813   -15.195432    108.82189    41.241042    41.241042    84.140281 
  339600    1024.2525   -24652.283   -25711.311    -47.06036    464.55122   -485.58267   -120.14963    41.240418    41.240418    84.125935 
  339700    1022.2174     -24652.3   -25709.224    229.71306    -96.97618    661.24897     124.8664    41.239812    41.239812    84.089979 
  339800    1027.5984     -24652.3   -25714.787    282.90125     235.1952    696.29709   -82.788549    41.239347    41.239347    84.045646 
  339900    1033.1053   -24652.308   -25720.489    781.45885    786.72484    1436.6682    120.98346    41.239135    41.239135    83.994762 
  340000    1030.4265   -24652.293   -25717.705    812.89628    1844.8204   -285.62913    879.49762    41.239408    41.239408    83.984957 
  340100    1034.8412    -24652.34   -25722.316    486.49454    393.81282    535.35008    530.32073    41.240062    41.240062    84.043214 
  340200    1030.4454   -24652.314   -25717.745   -93.117859   -159.66282   -5.2284487   -114.46231    41.240934    41.240934    84.109721 
  340300     1019.431    -24652.31   -25706.352   -190.85098    257.90281   -322.17743   -508.27832    41.241646    41.241646    84.131687 
  340400     1019.468   -24652.318   -25706.399    38.390839   -237.02796    324.34978      27.8507    41.242195    41.242195    84.109064 
  340500    1038.1248   -24652.336   -25725.707   -74.073675    380.53554   -777.97874    175.22218    41.242659    41.242659    84.064647 
  340600    1027.2086   -24652.318   -25714.402    360.14709   -244.62894    450.38302    874.68718     41.24305     41.24305    84.051582 
  340700    1033.6433   -24652.316   -25721.054   -41.575904    189.99443   -853.49495    538.77281    41.243404    41.243404      84.0699 
  340800    1020.6762    -24652.32    -25707.65    114.95688   -474.86813    296.57108    523.16769    41.243614    41.243614    84.100436 
  340900    1034.3546   -24652.323   -25721.796   -386.25178   -881.20566    172.59045   -450.14013    41.243623    41.243623    84.121487 
  341000    1023.1041   -24652.322   -25710.163    7.2532886    9.9382142    142.71564   -130.89399    41.243487    41.243487    84.097296 
  341100    1029.4211   -24652.335   -25716.707    168.81766   -273.57472    140.19081     639.8369    41.243395    41.243395     84.04794 
  341200    1040.2224   -24652.336   -25727.876    140.22799   -574.39948    1629.5398   -634.45638     41.24342     41.24342    84.012304 
  341300    1023.5816   -24652.332   -25710.666    1045.0406     1530.097    1051.2891    553.73563    41.243744    41.243744    83.968922 
  341400    1031.3223   -24652.335   -25718.673    828.68984    1331.0923    542.25145    612.72578    41.244511    41.244511     83.96425 
  341500    1019.5427   -24652.356   -25706.514    544.77349     1042.007    715.88165   -123.56819    41.245563    41.245563     84.01689 
  341600     1029.111    -24652.35   -25716.401    126.36636     354.8973      346.105   -321.90322    41.246654    41.246654    84.068251 
  341700    1034.7294   -24652.347   -25722.208   -301.85664   -148.27906    169.19461   -926.48546    41.247662    41.247662    84.084231 
  341800    1032.2292   -24652.351   -25719.627    85.256223    288.65245   -313.42575    280.54197    41.248495    41.248495    84.053925 
  341900    1024.5417   -24652.354   -25711.681    34.964026   -367.26591   -156.57179    628.72977    41.249161    41.249161    84.062041 
  342000    1022.1381   -24652.377   -25709.219   -101.44697    -359.5123   -21.366273    76.537668    41.249549    41.249549    84.120446 
  342100    1022.0654   -24652.358   -25709.125   -539.19996   -579.91699   -859.35936   -178.32354    41.249659    41.249659    84.173451 
  342200    1027.4849   -24652.363   -25714.733   -764.20212   -1282.4332   -747.33659   -262.83659     41.24937     41.24937    84.164565 
  342300    1029.6941   -24652.372   -25717.026   -419.48888   -936.45703   -314.68069   -7.3289145    41.248671    41.248671    84.122968 
  342400     1033.736   -24652.375   -25721.208   -337.14887   -993.40427    704.40403   -722.44636    41.247801    41.247801    84.104198 
  342500    1024.2178   -24652.371   -25711.363    58.378957   -4.6889202    -220.4025    400.22829    41.246932    41.246932    84.073314 
  342600    1024.7445   -24652.366   -25711.903    54.448723    570.07912   -407.97135    1.2384028    41.246148    41.246148    84.065214 
  342700    1022.8717   -24652.363   -25709.964    327.73996    575.12364   -103.48421    511.58045    41.245478    41.245478    84.048553 
  342800    1029.7946   -24652.374   -25717.132    217.64287    179.93489    493.92565   -20.931934    41.244979    41.244979    84.067162 
  342900    1027.3651    -24652.37   -25714.616    17.474564    255.33454    13.949223   -216.86007    41.244697    41.244697    84.077654 
  343000    1028.1271    -24652.37   -25715.404    248.39025    1285.2286   -187.34673   -352.71113    41.244535    41.244535    84.063284 
  343100    1041.2842    -24652.38   -25729.018   -281.51875   -1012.2713   -173.46343    341.17848    41.244521    41.244521    84.068291 
  343200    1032.0721   -24652.383   -25719.495   -331.04067   -127.54515   -891.48724    25.910378    41.244373    41.244373    84.107776 
  343300    1023.6215   -24652.381   -25710.757   -467.08185    -793.8271    -812.9185    205.50004    41.244011    41.244011    84.147255 
  343400    1028.9669   -24652.377    -25716.28   -620.07556   -583.58972   -980.88738   -295.74959    41.243367    41.243367    84.168711 
  343500    1027.7516   -24652.413   -25715.059   -380.38829    676.57822   -1146.7816   -670.96147    41.242456    41.242456    84.132774 
  343600    1034.3003   -24652.415   -25721.831    57.355549    1192.5829   -619.18664   -401.32958    41.241534    41.241534    84.063574 
  343700    1033.2789   -24652.416   -25720.777    591.97209    261.00309     1489.334    25.579152    41.240916    41.240916     84.00101 
  343800    1025.7402   -24652.391   -25712.957    1167.1922    562.24586    1102.6877    1836.6431    41.240781    41.240781    83.951653 
  343900    1025.3341   -24652.437   -25712.583     830.1682    724.10192    1296.2692    470.13344    41.241083    41.241083    84.006693 
  344000    1022.5039   -24652.506   -25709.726    42.679346   -396.72424    601.19431   -76.432035      41.2417      41.2417    84.116366 
  344100    1016.8592   -24652.434   -25703.817   -591.90642   -51.566989   -591.53821   -1132.6141    41.242289    41.242289    84.189542 
  344200    1029.8306   -24652.469   -25717.264   -451.13529   -1350.5423    236.37905   -239.24264    41.242649    41.242649     84.14177 
  344300    1015.7438   -24652.464   -25702.695     571.8327    416.30836    869.49625    429.69348    41.242787    41.242787    84.075114 
  344400     1032.856   -24652.477     -25720.4    362.39301    586.91211    493.26496    7.0019658    41.243084    41.243084    84.023177 
  344500    1027.7569    -24652.46   -25715.111    472.02452   -53.246039    825.42895    643.89065    41.243617    41.243617    84.008661 
  344600    1026.0058   -24652.475   -25713.316    478.82437    626.48717     274.2676    535.71835    41.244304    41.244304    84.045232 
  344700    1023.6496   -24652.467   -25710.872    104.66868    60.168596    383.46406   -129.62661    41.245062    41.245062    84.091186 
  344800    1036.5784   -24652.469   -25724.241   -377.71572   -528.94794   -665.35124    61.152016    41.245738    41.245738    84.104943 
  344900    1027.7648   -24652.468   -25715.128   -315.88308   -313.19573   -400.07936   -234.37416    41.246183    41.246183    84.121385 
  345000    1028.1886   -24652.466   -25715.564   -453.10676   -30.806793   -473.11964   -855.39385    41.246372    41.246372    84.137008 
  345100    1023.3968   -24652.472   -25710.615   -31.311836    69.128815   -523.21562     360.1513    41.246376    41.246376    84.108024 
  345200     1016.795   -24652.466   -25703.783    180.88776   -58.725153    35.892908    565.49551    41.246273    41.246273    84.094079 
  345300    1029.0958   -24652.493   -25716.529   -307.15124    43.287038    -534.1913   -430.54945    41.246109    41.246109    84.133041 
  345400    1024.5514   -24652.476   -25711.813   -523.91498   -257.92798   -791.41758   -522.39939    41.245844    41.245844    84.161057 
  345500    1023.4282   -24652.473   -25710.648   -144.48512   -233.51328   -279.12806    79.185978     41.24541     41.24541    84.143072 
  345600    1023.1176   -24652.473   -25710.327   -215.16485   -764.96864     25.40769    94.066391    41.244868    41.244868     84.12823 
  345700    1027.3108   -24652.484   -25714.674    34.619956   -427.46979    479.93476    51.394907    41.244285    41.244285    84.099028 
  345800    1025.0032     -24652.5   -25712.304    214.85637     570.8791    501.47351   -427.78348    41.243831    41.243831    84.048702 
  345900    1023.0653   -24652.482   -25710.283    889.27248    503.74932    1199.1535    964.91458    41.243662    41.243662    83.996764 
  346000    1024.6774   -24652.491   -25711.958    584.78665    650.85557    1149.1033   -45.598903    41.243851    41.243851     84.02964 
  346100     1012.036    -24652.49   -25698.886    659.12267    1132.8935    899.99583    -55.52135    41.244363    41.244363    84.059365 
  346200    1033.0668   -24652.498    -25720.64   -165.34839   -310.57041   -751.71875    566.24398    41.245095    41.245095    84.069879 
  346300    1021.7585   -24652.505   -25708.954   -94.545452   -506.02742   -65.022432     287.4135    41.245664    41.245664    84.117226 
  346400    1023.8313   -24652.497    -25711.09    -456.1104   -454.62692   -58.472167   -855.23211    41.246013    41.246013    84.140772 
  346500    1029.4107   -24652.546   -25716.907   -12.914566   -389.44838     837.4295   -486.72482    41.246273    41.246273    84.077959 
  346600    1032.5198   -24652.529   -25720.105    353.77565   -38.395016    405.32584    694.39613    41.246618    41.246618    83.995844 
  346700    1034.0157   -24652.526   -25721.648    372.94718    70.500629    318.75148    729.58942    41.247016    41.247016    83.991666 
  346800    1036.3985   -24652.572   -25724.158   -271.25456   -1097.8437    132.04826     152.0318    41.247499    41.247499    84.066472 
  346900    1047.0173   -24652.551   -25735.116   -861.93542   -1868.0151   -648.78586   -69.005292    41.247832    41.247832    84.142606 
  347000    1017.6551   -24652.529   -25704.736   -439.00713   -91.115559   -419.59937   -806.30646    41.247763    41.247763    84.163476 
  347100    1032.7574   -24652.549   -25720.371    -664.0197   -886.71898    -466.5545   -638.78564    41.247504    41.247504     84.12394 
  347200    1019.4034   -24652.584   -25706.598    466.84727    831.34822    825.77129   -256.57771    41.247045    41.247045    84.052375 
  347300    1024.1913   -24652.548   -25711.513    606.17845    682.08746    -25.15278    1161.6007    41.246771    41.246771    83.999104 
  347400    1035.9029   -24652.578   -25723.651    241.03287    587.58363   -237.75463    373.26959    41.246679    41.246679    84.039504 
  347500    1030.4087   -24652.585   -25717.978   -231.78973    236.21874    -1036.109    104.52101    41.246753    41.246753     84.11003 
  347600    1019.4832   -24652.583   -25706.679   -654.28512   -623.96494   -845.05206   -493.83836     41.24669     41.24669    84.186006 
  347700    1022.1734   -24652.573   -25709.451   -906.96555   -1350.9839   -389.43635   -980.47643    41.246214    41.246214    84.210724 
  347800    1021.8017   -24652.589   -25709.082   -321.54841   -851.88374   -561.54937    448.78787    41.245363    41.245363    84.167728 
  347900    1024.5924   -24652.615   -25711.994   -220.42205   -298.01321   -134.72048   -228.53246    41.244285    41.244285    84.116812 
  348000    1024.6645   -24652.624   -25712.078    453.61146    274.88397    254.65431     831.2961     41.24329     41.24329    84.039916 
  348100    1021.7367     -24652.6   -25709.027    845.95204    997.08915    385.36057    1155.4064    41.242608    41.242608    83.997079 
  348200    1031.5696   -24652.617    -25719.21    247.23747    817.47486    55.661551     -131.424    41.242253    41.242253    84.033926 
  348300    1025.9744   -24652.623   -25713.431    45.148301   -181.39149   -21.070593    337.90698    41.242118    41.242118    84.082669 
  348400    1024.4322   -24652.629   -25711.842   -225.76294   -807.47494    114.86435    15.321765    41.242061    41.242061    84.146919 
  348500    1017.4211    -24652.61   -25704.575   -552.18596   -604.33888    190.71563   -1242.9346    41.241813    41.241813    84.190577 
  348600    1031.3973   -24652.668   -25719.084   -546.77932   -1181.2081    308.95257    -768.0824    41.241376    41.241376    84.140472 
  348700    1027.2915   -24652.684   -25714.855    388.64521    1057.0396    103.20063    5.6954235    41.240864    41.240864     84.04323 
  348800    1029.0865   -24652.658   -25716.684    1132.4356    1488.6904    956.90746    951.70887    41.240771    41.240771    83.966404 
  348900    1018.9756   -24652.661   -25706.233    1021.9445    912.40981    1467.6643    685.75943    41.241294    41.241294    83.984441 
  349000    1022.9144   -24652.739   -25710.383     288.1798    505.25193   -16.428315    375.71579    41.242163    41.242163     84.07816 
  349100    1024.0401   -24652.711   -25711.519   -601.34504   -550.83296   -460.77716   -792.42499    41.243016    41.243016    84.179379 
  349200    1023.1042   -24652.692   -25710.532   -782.14662    -153.2787   -757.24108   -1435.9201     41.24358     41.24358     84.20269 
  349300    1000.2783   -24652.747   -25686.987    683.06151    406.96875    1219.9048      422.311    41.243856    41.243856    84.116774 
  349400    1028.7127   -24652.762   -25716.402    505.28138    725.48459    679.12072    111.23884    41.244216    41.244216    84.017885 
  349500    1021.3176   -24652.727    -25708.72    1157.3778    1388.8618    1416.2242     667.0474    41.244823    41.244823    83.963839 
  349600    1026.6143   -24652.735   -25714.204    979.51843    1025.1412    876.14519    1037.2689    41.245874    41.245874    83.959945 
  349700    1018.0838   -24652.772   -25705.422    799.63758    790.92583    1068.9603    539.02655    41.247279    41.247279    84.010054 
  349800    1015.5155   -24652.752   -25702.747    183.06275     825.9916    815.25182   -1092.0552    41.248844    41.248844    84.076736 
  349900    1021.9071   -24652.765   -25709.368   -31.565784    -48.11248    317.54817   -364.13304    41.250314    41.250314    84.065415 
  350000    1035.2475   -24652.766   -25723.162   -76.553894   -447.12224   -353.74309    571.20365    41.251553    41.251553    84.028493 
Loop time of 5713.71 on 1 procs for 200000 steps with 8000 atoms

Pair  time (%) = 5163.22 (90.3655)
Neigh time (%) = 395.673 (6.92497)
Comm  time (%) = 31.9169 (0.558602)
Outpt time (%) = 2.61111 (0.0456991)
Other time (%) = 120.288 (2.10525)

Nlocal:    8000 ave 8000 max 8000 min
Histogram: 1 0 0 0 0 0 0 0 0 0
Nghost:    8374 ave 8374 max 8374 min
Histogram: 1 0 0 0 0 0 0 0 0 0
Neighs:    286808 ave 286808 max 286808 min
Histogram: 1 0 0 0 0 0 0 0 0 0

Total # of neighbors = 286808
Ave neighs/atom = 35.851
Neighbor list builds = 20000
Dangerous builds = 0
unfix		4
