LAMMPS (13 Jan 2014)
dimension       3
boundary        p p p
units           metal

atom_style	atomic
neighbor	0.3 bin
neigh_modify	every 10 delay 0 check no

# Number of steps for the equilibration steps
variable        eqsteps equal 50000

# Number of steps to run our NPH simulation
variable        simsteps equal 200000

# Our trial melting temperature
variable	T equal 1050.0
variable	T2 equal 2*${T}
variable	T2 equal 2*1050

# Some high temperature to melt the crystal
variable	Tmelt equal 2000.0

#System size
variable	nx equal 10
variable	ny equal 10
variable	nz equal 20
variable	nzhalf equal ${nz}*0.5
variable	nzhalf equal 20*0.5
variable	a equal 4.050
variable	length equal ${nz}*${a}
variable	length equal 20*${a}
variable	length equal 20*4.05

lattice		fcc ${a}
lattice		fcc 4.05
Lattice spacing in x,y,z = 4.05 4.05 4.05

region         box block 0 ${nx} 0 ${ny} 0 ${nz}
region         box block 0 10 0 ${ny} 0 ${nz}
region         box block 0 10 0 10 0 ${nz}
region         box block 0 10 0 10 0 20
create_box     1 box
Created orthogonal box = (0 0 0) to (40.5 40.5 81)
  1 by 1 by 1 MPI processor grid
create_atoms   1 box
Created 8000 atoms

mass		1 26.9815

pair_style	eam/alloy
pair_coeff	* * Al_potential.alloy Al

velocity	all create ${T2} 1337
velocity	all create 2100 1337

# Create a dump file. This can be visualized with
# e.g. OVITO (http://www.ovito.org/)
dump		id all atom 1000 atomsdump

# 1 fs timestep
timestep	0.001
thermo_style	custom step temp etotal pe press pxx pyy pzz lx ly lz

# output every 100th timestep
thermo		100

# Equilibration the whole system to the trial melting temperature
fix		1 all npt temp ${T} ${T} 1 iso 0 0 3 drag 1.0
fix		1 all npt temp 1050 ${T} 1 iso 0 0 3 drag 1.0
fix		1 all npt temp 1050 1050 1 iso 0 0 3 drag 1.0
run		${eqsteps}
run		50000
Memory usage per processor = 5.95314 Mbytes
Step Temp TotEng PotEng Press Pxx Pyy Pzz Lx Ly Lz 
       0         2100   -25005.953   -27177.252    13392.219    13233.585    13217.176    13725.895         40.5         40.5           81 
     100    999.75433   -25028.548   -26062.246      34343.3    34677.199    34436.937    33915.764    40.590286    40.590286    81.180571 
     200    990.79685   -25064.471   -26088.907    22164.503     22894.54    22097.831    21501.139    40.806352    40.806352    81.612704 
     300    976.06042   -25082.396   -26091.596    12767.745    12841.195    12453.223    13008.818    40.986068    40.986068    81.972136 
     400    967.83356   -25087.595   -26088.288    6402.2942    6424.4003    6533.3091    6249.1732    41.116026    41.116026    82.232052 
     500     949.5352   -25086.667   -26068.441     1909.887    2022.1488    1875.5002    1832.0119    41.216985    41.216985    82.433969 
     600    938.90127   -25082.618   -26053.397   -1092.4772   -792.46771   -1033.2904   -1451.6734    41.288942    41.288942    82.577884 
     700    936.92867   -25077.489   -26046.229   -3027.0997   -3333.8296   -2753.4527   -2994.0168    41.330991    41.330991    82.661982 
     800    948.04801   -25072.644    -26052.88   -3787.8089   -3679.9148   -3932.0829    -3751.429    41.346424    41.346424    82.692848 
     900    936.28553   -25068.502   -26036.576   -3218.5284   -3039.6154   -3212.8954   -3403.0744    41.340083    41.340083    82.680167 
    1000    952.52218   -25064.703   -26049.565    -2368.854   -2322.8303   -2224.1412   -2559.5903    41.319725    41.319725     82.63945 
    1100    955.71306   -25060.926   -26049.088   -1063.3127   -949.49409   -503.52164   -1736.9225    41.293152    41.293152    82.586305 
    1200    949.36835   -25057.013   -26038.614    507.42041    973.60387     650.2681   -101.61072    41.267442    41.267442    82.534884 
    1300    962.78378   -25052.988   -26048.461    1127.0413    1547.2164    1317.2522    516.65525    41.248375    41.248375     82.49675 
    1400    970.78844   -25048.985   -26052.733    1704.0955    1561.8719    1723.3014    1827.1131    41.238605    41.238605    82.477209 
    1500    968.70227   -25045.115   -26046.707    1608.2424    1499.0801    1607.8631    1717.7841    41.239196    41.239196    82.478392 
    1600    971.71558   -25041.246   -26045.953    1331.3164    1382.3118    1406.5379    1205.0995    41.248653    41.248653    82.497305 
    1700    960.53918   -25037.448   -26030.599    988.76642    1362.8865    1019.3904    584.02233    41.263364    41.263364    82.526729 
    1800    963.50306   -25033.611   -26029.827    263.67735   -289.32088    474.31151    606.04142    41.279545    41.279545     82.55909 
    1900    976.91306   -25029.708    -26039.79   -695.64656   -581.88206   -531.53828   -973.51933    41.293795    41.293795     82.58759 
    2000    963.97932   -25025.844   -26022.553   -669.58736   -996.39225   -224.77042   -787.59942    41.303159    41.303159    82.606318 
    2100    972.70326   -25021.981    -26027.71   -965.99926   -1022.4946   -839.81181   -1035.6913    41.307617    41.307617    82.615233 
    2200    973.28719    -25018.14   -26024.472   -837.15147   -1300.3843   -584.69311   -626.37696    41.307232    41.307232    82.614463 
    2300    970.15531    -25014.37   -26017.464   -357.63778   -854.89694    42.974409   -260.99081    41.302842    41.302842    82.605684 
    2400      981.009   -25010.652   -26024.968   -248.82514   -479.26832     172.8587   -440.06579    41.296525    41.296525     82.59305 
    2500    972.89528   -25006.985   -26012.912    388.54572     108.0978    79.942384    977.59697    41.290163    41.290163    82.580326 
    2600    989.65433   -25003.387   -26026.642    243.75242    138.42351    500.98749    91.846271    41.285691    41.285691    82.571382 
    2700    974.35639   -24999.901   -26007.338    945.40375     1286.982     643.9872    905.24207      41.2837      41.2837    82.567399 
    2800    978.15749   -24996.467   -26007.835    780.29829    680.10249    397.58732    1263.2051    41.285377    41.285377    82.570753 
    2900    985.05443   -24993.097   -26011.596    534.51085    159.68952    276.59761    1167.2454    41.289844    41.289844    82.579688 
    3000    986.56387   -24989.705   -26009.765    266.21622      178.385    206.73391    413.52974    41.296568    41.296568    82.593135 
    3100    989.43857   -24986.288    -26009.32   -173.18508    -434.6538    110.71092   -195.61237    41.304395    41.304395     82.60879 
    3200    994.05312   -24982.917    -26010.72   -341.89926    -348.5557    13.985548   -691.12761    41.311156    41.311156    82.622313 
    3300    985.38278   -24979.573   -25998.412   -307.19175    158.07507   -588.12261   -491.52772    41.315851    41.315851    82.631702 
    3400     997.1296   -24976.285   -26007.269    -628.8794   -822.27675   -367.77118   -696.59028    41.317964    41.317964    82.635929 
    3500     995.0161   -24973.045   -26001.844   -542.28243   -273.28849   -713.58761   -639.97119    41.317584    41.317584    82.635168 
    3600    995.51167   -24969.813   -25999.124    -176.3753    184.44388   -307.04337   -406.52641    41.315481    41.315481    82.630963 
    3700    982.61822   -24966.669   -25982.649    368.61241    292.76686    2.9995068    810.07085    41.312294    41.312294    82.624589 
    3800    1001.1141   -24963.569   -25998.673    82.261062    613.09013   -87.908858   -278.39808     41.30971     41.30971    82.619421 
    3900    1000.9939   -24960.505   -25995.485    131.07061    164.84272     61.34698    167.02213    41.308261    41.308261    82.616521 
    4000    989.49516     -24957.5   -25980.591    696.27923    786.76765    741.09583    560.97422    41.308349    41.308349    82.616697 
    4100    1000.9769   -24954.505   -25989.467    284.38087    226.35318    560.41302    66.376402     41.31084     41.31084     82.62168 
    4200    993.96429   -24951.606   -25979.317    445.13875    513.70957    461.32474    360.38193    41.314884    41.314884    82.629767 
    4300    1003.3869   -24948.739   -25986.193 -0.033794299   -140.56946    219.66366   -79.195581    41.319972    41.319972    82.639943 
    4400    1022.9077   -24945.911   -26003.548   -592.06986   -888.29004   -454.59673   -433.32281     41.32478     41.32478    82.649561 
    4500     990.7672   -24943.154   -25967.559    109.58381   -432.72256    501.26931    260.20468    41.328427    41.328427    82.656854 
    4600    1007.0866   -24940.338   -25981.617   -403.76042   -319.32377   -724.93627   -167.02121    41.331081    41.331081    82.662162 
    4700    1016.8875   -24937.616   -25989.029   -551.10367   -562.78943   -489.98627   -600.53532    41.331643    41.331643    82.663286 
    4800    1011.1632    -24934.89   -25980.384   -301.64843    76.679312   -643.25559   -338.36902    41.331072    41.331072    82.662144 
    4900    1016.2626   -24932.174    -25982.94   -285.46862     21.34293   -697.04093   -180.70786    41.329814    41.329814    82.659628 
    5000    1007.6402   -24929.518   -25971.369    117.59938    196.76327    492.10293   -336.06805    41.328348    41.328348    82.656697 
    5100    1006.2307   -24926.868   -25967.262    230.55668    173.71637    22.665516    495.28815    41.327837    41.327837    82.655674 
    5200    1021.9947   -24924.241   -25980.935   -67.876934   -493.39423    390.73401   -100.97058    41.328212    41.328212    82.656425 
    5300     1016.622   -24921.728   -25972.866    85.343394   -104.23302    454.91363    -94.65043    41.329059    41.329059    82.658118 
    5400    1007.7278   -24919.293   -25961.235    311.53613    10.807651    559.91544    363.88528    41.330607    41.330607    82.661213 
    5500    1016.3978   -24916.848   -25967.754    21.757951       -149.3   -457.73028    672.30413    41.333258    41.333258    82.666515 
    5600    1024.4047   -24914.454   -25973.639   -259.74868    -379.9015   -169.10569   -230.23886    41.335943    41.335943    82.671887 
    5700    1009.5573   -24912.115   -25955.949    146.92382    728.40571    74.077111   -361.71136    41.338395    41.338395     82.67679 
    5800    1015.0238   -24909.816   -25959.302   -53.825021   -529.99653    306.07052     62.45095    41.340717    41.340717    82.681434 
    5900    1012.6956   -24907.541   -25954.619   0.40634257    348.24725   -19.212226   -327.81599    41.342554    41.342554    82.685107 
    6000    1020.7258   -24905.263   -25960.645   -111.55025   -205.38296   -86.260414   -43.007392    41.343813    41.343813    82.687626 
    6100    1034.4342   -24903.035    -25972.59    -376.8708    32.585179   -438.36339   -724.83418    41.344443    41.344443    82.688886 
    6200    1006.8608   -24900.931   -25941.977    235.93145    254.33857    302.43021    151.02557    41.344184    41.344184    82.688367 
    6300    1017.5461   -24898.732   -25950.826    4.7084646    198.25208   -6.0454907   -178.08119    41.344397    41.344397    82.688794 
    6400    1011.5639   -24896.589   -25942.497    161.12555   -325.32286    156.08092    652.61859    41.344282    41.344282    82.688563 
    6500    1027.9759   -24894.484   -25957.361   -139.22773   -524.94878   -469.97121    577.23679    41.344099    41.344099    82.688198 
    6600    1013.1228   -24892.457   -25939.977    488.38705    622.47958    315.74547    526.93608    41.343885    41.343885    82.687769 
    6700     1021.495   -24890.492   -25946.669    223.79317    390.12104   -37.509558    318.76801    41.344342    41.344342    82.688684 
    6800    1027.4583   -24888.515   -25950.857    109.74179    196.68223   -762.01114    894.55428     41.34581     41.34581     82.69162 
    6900    1024.7322   -24886.596    -25946.12    135.47632    50.818422     134.6194    220.99114    41.347547    41.347547    82.695094 
    7000    1007.8432   -24884.718   -25926.779    460.00577    289.72145     886.8669    203.42895    41.349528    41.349528    82.699055 
    7100    1027.7442   -24882.765   -25945.403   -19.867635    276.15079   -304.84566   -30.908035    41.352119    41.352119    82.704237 
    7200    1031.8639    -24880.89   -25947.787   -261.43177   -446.43775    6.4195508   -344.27712    41.354249    41.354249    82.708498 
    7300    1028.3545   -24879.088   -25942.358    69.458345    88.454445    218.48342   -98.562828    41.355567    41.355567    82.711133 
    7400    1040.6719   -24877.331   -25953.335    -374.1572    135.44336   -927.48776   -330.42721    41.356466    41.356466    82.712933 
    7500    1025.2322   -24875.614   -25935.655   -13.826541    269.83385   -96.208924   -215.10455    41.356646    41.356646    82.713292 
    7600    1026.3794   -24873.899   -25935.126    50.121627    139.56938   -158.86286    169.65836    41.356547    41.356547    82.713094 
    7700    1032.0172   -24872.187   -25939.243   -56.608443    27.502812    68.169791   -265.49793    41.356139    41.356139    82.712279 
    7800    1033.7342   -24870.519   -25939.351    55.014116    471.53289   -91.487785   -215.00275    41.355467    41.355467    82.710934 
    7900    1026.5141   -24868.958   -25930.324    283.63155    473.63328    537.29805   -160.03668    41.354608    41.354608    82.709216 
    8000     1026.528   -24867.411   -25928.791    318.00269    81.288724    514.27228    358.44706    41.354568    41.354568    82.709136 
    8100    1032.9197    -24865.88   -25933.869    169.32161    484.34677    37.371601   -13.753553    41.355448    41.355448    82.710897 
    8200    1031.5757   -24864.376   -25930.976    134.15002    835.67803   -223.07562   -210.15235    41.356878    41.356878    82.713757 
    8300    1022.8544    -24862.93   -25920.513    241.72135   -2.9869321    220.13164    508.01934    41.358554    41.358554    82.717108 
    8400    1029.9466   -24861.465    -25926.38    156.18455    661.50435   -340.15955    147.20885    41.360367    41.360367    82.720735 
    8500     1024.987   -24860.084   -25919.871    241.15253    3.9332858   -10.290652    729.81496    41.361669    41.361669    82.723338 
    8600    1038.4649   -24858.677   -25932.399   -142.23286    -102.2769   -878.01966    553.59797    41.363245    41.363245     82.72649 
    8700    1029.6385   -24857.278   -25921.874    226.57554    291.11054    416.83838    -28.22228    41.364563    41.364563    82.729126 
    8800     1040.315   -24855.912   -25931.548   -161.86958   -714.15142     215.3368    13.205895    41.365954    41.365954    82.731908 
    8900    1034.3175   -24854.626   -25924.061   -36.633623   -457.06678   -245.15895    592.32486    41.366755    41.366755    82.733509 
    9000    1044.3536   -24853.372   -25933.183   -341.96294   -499.86344   -534.34686     8.321493    41.367211    41.367211    82.734421 
    9100    1031.7022   -24852.198   -25918.928    162.52742   -12.030631    168.87007    330.74283    41.366635    41.366635     82.73327 
    9200     1030.294   -24851.064   -25916.339    182.93439    383.37765    43.705748    121.71977    41.365961    41.365961    82.731922 
    9300    1043.4556   -24849.921   -25928.804    60.528428    244.39967   -462.09854    399.28415    41.365514    41.365514    82.731027 
    9400    1040.0363   -24848.833   -25924.181    120.50803   -44.810934    47.866789    358.46824    41.365099    41.365099    82.730198 
    9500    1041.2135   -24847.847   -25924.412    101.59678   -195.89421    -336.7253    837.40985     41.36465     41.36465      82.7293 
    9600    1043.5708   -24846.864   -25925.866    98.256641    617.10239   -183.56171   -138.77075    41.364831    41.364831    82.729663 
    9700    1049.6678   -24845.921   -25931.227   -86.019912   -837.78966    234.49076    345.23916    41.365467    41.365467    82.730934 
    9800    1038.6451   -24845.008   -25918.917     216.4087    664.00861   -173.94514    159.16264    41.366487    41.366487    82.732974 
    9900      1049.94   -24844.077   -25929.665   -141.56546    -395.1119   -79.264274    49.679795    41.368169    41.368169    82.736338 
   10000    1037.5959   -24843.121   -25915.945    81.783703   -278.29097    570.10019   -46.458108    41.370019    41.370019    82.740037 
   10100    1039.7174   -24842.132   -25917.149   -65.595885   -386.24424     130.5571    58.899478    41.371892    41.371892    82.743783 
   10200     1036.284   -24841.192   -25912.659    63.705679   -4.8466559    823.54208   -627.57838    41.372933    41.372933    82.745866 
   10300    1044.5039   -24840.287   -25920.254   -236.37582    127.35279   -356.98865   -479.49159    41.373393    41.373393    82.746787 
   10400    1049.7661   -24839.364   -25924.772   -311.38716    220.68241   -554.44181   -600.40207    41.373459    41.373459    82.746919 
   10500    1052.8193   -24838.507   -25927.071   -229.22368    264.25556   -865.44282   -86.483789    41.372624    41.372624    82.745247 
   10600    1046.6572   -24837.641   -25919.834    16.096117   -92.105102    256.62788   -116.23442    41.371599    41.371599    82.743198 
   10700    1050.7143   -24836.829   -25923.217   -96.125703    440.60692   -594.53761   -134.44642    41.370738    41.370738    82.741475 
   10800    1047.0275   -24836.087   -25918.663    83.492521    235.11592   -192.12979    207.49143    41.370051    41.370051    82.740103 
   10900    1053.8516   -24835.396   -25925.028    -17.89626    563.94473   -210.67003   -406.96348    41.369772    41.369772    82.739544 
   11000    1039.0637   -24834.808    -25909.15    307.38288     24.56595     720.7219    176.86078    41.369991    41.369991    82.739982 
   11100    1043.9044    -24834.22   -25913.567    314.95507   -235.54027    30.087878    1150.3176    41.371172    41.371172    82.742344 
   11200    1050.5745   -24833.704   -25919.947   -57.274174    -197.6254   -6.6807529    32.483636    41.372733    41.372733    82.745465 
   11300    1047.4251   -24833.204   -25916.191    -70.41939   -270.83513   -109.23452    168.81148    41.374428    41.374428    82.748855 
   11400    1047.3605   -24832.688   -25915.608   -107.84036    260.09869    117.56478   -701.18455    41.376017    41.376017    82.752034 
   11500    1056.7315   -24832.261    -25924.87   -458.05966   -422.86014   -332.58113    -618.7377    41.376644    41.376644    82.753289 
   11600    1041.8238   -24831.859   -25909.055    74.351229    397.59192   -5.0530531   -169.48518    41.376122    41.376122    82.752243 
   11700    1044.7681   -24831.444   -25911.684    170.24676    189.02773    197.75617    123.95638    41.375332    41.375332    82.750664 
   11800    1049.7934   -24831.071   -25916.507    41.248344   -598.43794   -228.64638    950.82935    41.374326    41.374326    82.748653 
   11900     1048.048   -24830.788   -25914.419    121.62609   -371.99614    239.97731    496.89709    41.373205    41.373205    82.746411 
   12000    1054.6593   -24830.454   -25920.921     8.851598    239.72906   -245.23864    32.064369    41.372928    41.372928    82.745856 
   12100    1047.8588   -24830.159   -25913.595    84.709638   -406.27136    589.77534    70.624934    41.372957    41.372957    82.745914 
   12200    1052.1434    -24829.95   -25917.816   -16.211286   -701.60073    258.58447     394.3824    41.372999    41.372999    82.745998 
   12300    1047.7607    -24829.72   -25913.054    169.48553    12.169354    192.71769    303.56955    41.373544    41.373544    82.747089 
   12400    1036.0166   -24829.543   -25900.735    420.32591    57.304086    497.27353    706.40012    41.374573    41.374573    82.749146 
   12500     1047.767   -24829.346   -25912.687   -144.35025   -205.11402   -220.75255   -7.1841885    41.376265    41.376265     82.75253 
   12600    1050.2772   -24829.164     -25915.1   -97.990735    1.7865472   -92.866845   -202.89191    41.377582    41.377582    82.755164 
   12700    1053.5305   -24829.026   -25918.326   -146.75981    27.055425    326.90016   -794.23502    41.378348    41.378348    82.756696 
   12800    1051.9753   -24828.942   -25916.634   -112.19727    326.70109   -569.19878    -94.09414     41.37841     41.37841    82.756819 
   12900    1035.5487   -24828.887   -25899.595    210.12631   -27.279503    120.99067    536.66776    41.377774    41.377774    82.755548 
   13000     1052.249   -24828.715    -25916.69   -158.25222   -330.74898    789.39711    -933.4048    41.377515    41.377515    82.755029 
   13100    1051.0709    -24828.62   -25915.376   -166.17228   -261.60436    -129.2337   -107.67878    41.376337    41.376337    82.752675 
   13200    1043.4295   -24828.493   -25907.349     149.7165   -182.46576    372.27539    259.33987    41.375051    41.375051    82.750102 
   13300    1049.1408   -24828.337   -25913.098    56.197455   -373.19357     78.82525    462.96068    41.374025    41.374025    82.748051 
   13400    1045.3934   -24828.223   -25909.109    65.545091   -22.978607    185.22364    34.390236    41.373116    41.373116    82.746232 
   13500     1043.729   -24828.071   -25907.236    208.93316   -183.56225    485.96941    324.39234    41.372824    41.372824    82.745647 
   13600    1045.2022   -24827.911   -25908.599    182.48075    388.21055    206.95531   -47.723617    41.373224    41.373224    82.746449 
   13700    1044.6128   -24827.706   -25907.786    79.859363    64.360188   -529.91267    705.13057    41.374151    41.374151    82.748301 
   13800    1042.0224   -24827.552   -25904.953    204.76709   -14.990977    106.41786    522.87439    41.374854    41.374854    82.749708 
   13900     1042.062   -24827.402   -25904.843    257.12298    860.46747   -79.645337   -9.4532038    41.375992    41.375992    82.751984 
   14000    1052.8587   -24827.264   -25915.869   -39.674622    214.99522   -584.58526    250.56617    41.377299    41.377299    82.754598 
   14100    1045.5301   -24827.209   -25908.236    119.06104   -424.34464    296.88306    484.64471    41.378116    41.378116    82.756232 
   14200    1047.5459   -24827.185   -25910.297   -19.474248   -324.63599   -538.82816     805.0414    41.378526    41.378526    82.757052 
   14300    1053.6539   -24827.142   -25916.569    -187.8238   -979.63589    339.52297     76.64153    41.378596    41.378596    82.757192 
   14400     1067.312   -24827.057   -25930.606   -426.25988   -1387.9538   -182.40547    291.57961    41.378577    41.378577    82.757155 
   14500    1045.4801   -24827.017   -25907.993    33.499341   -910.35709    233.12776    777.72735    41.377904    41.377904    82.755808 
   14600    1050.5348   -24827.028   -25913.231   -32.525747   -135.45543   -20.619141    58.497332    41.376439    41.376439    82.752877 
   14700    1049.0497   -24827.032   -25911.699    91.004874   -401.58854    188.32788    486.27528    41.374813    41.374813    82.749627 
   14800    1038.9295    -24827.03   -25901.233    417.82687     398.8488   -368.20514    1222.8369    41.373451    41.373451    82.746903 
   14900    1051.4513   -24827.027   -25914.177    218.98802   -510.21693    659.82195    507.35904     41.37274     41.37274     82.74548 
   15000    1050.7646   -24827.121   -25913.561    116.88112    508.04381   -331.90836    174.50791    41.372285    41.372285     82.74457 
   15100    1047.8204   -24827.232   -25910.628    119.47096   -183.79228    186.86261    355.34254    41.372156    41.372156    82.744313 
   15200    1043.1397   -24827.291   -25905.848    215.79212    124.02578    746.27072   -222.92012    41.372815    41.372815     82.74563 
   15300     1052.078   -24827.349   -25915.147    211.50891    945.57541   -264.62245   -46.426236    41.373854    41.373854    82.747707 
   15400    1040.3715   -24827.406     -25903.1    217.00566     201.9971    333.36584    115.65403    41.375204    41.375204    82.750409 
   15500    1052.3019   -24827.376   -25915.405   -125.34056    88.537868   -305.92488   -158.63467    41.376989    41.376989    82.753978 
   15600     1054.526   -24827.322   -25917.652   -173.93808   -83.889123   -222.09303   -215.83207    41.378602    41.378602    82.757204 
   15700    1048.9857   -24827.297   -25911.898    -157.3237    237.42966    -290.5612   -418.83958    41.379348    41.379348    82.758697 
   15800    1057.1512   -24827.269   -25920.312   -434.83564   -1069.0838   -360.66716    125.24405     41.37925     41.37925      82.7585 
   15900    1041.4473   -24827.255   -25904.061    191.49257     43.74877    540.03123   -9.3022869    41.378103    41.378103    82.756206 
   16000    1060.5394   -24827.271   -25923.818    -274.1999   -289.02873   -262.29334   -271.27762    41.376737    41.376737    82.753474 
   16100    1044.7122   -24827.336   -25907.518     93.75529    -144.9918    107.91002    318.34765    41.374758    41.374758    82.749516 
   16200    1053.3825   -24827.346   -25916.493   -89.117688   -306.96776    12.764059    26.850638    41.373405    41.373405     82.74681 
   16300    1059.4397   -24827.356   -25922.766   -54.410215   -415.23357   -337.65633    589.65926     41.37265     41.37265    82.745299 
   16400    1052.4498   -24827.436   -25915.619     154.7524    428.10274    235.17388   -199.01944    41.372367    41.372367    82.744735 
   16500    1050.5208   -24827.508   -25913.696  -0.74194324   -178.17058    129.42853    46.516227    41.373012    41.373012    82.746025 
   16600    1044.8405   -24827.568   -25907.883    251.78994    757.84537    98.274679   -100.75024    41.374101    41.374101    82.748203 
   16700    1050.8258   -24827.605   -25914.109    43.410749   -502.77055    118.55769    514.44511    41.375586    41.375586    82.751171 
   16800    1046.3487   -24827.687   -25909.561   -6.1124552    678.06503   -1032.8767    336.47434    41.376952    41.376952    82.753903 
   16900    1051.2177   -24827.759   -25914.668   -152.46535    289.11075    134.40442   -880.91123    41.378152    41.378152    82.756305 
   17000    1046.4547   -24827.825   -25909.808    -163.3118    15.225705   -281.36801    -223.7931    41.378695    41.378695    82.757389 
   17100    1064.2084   -24827.854   -25928.195   -401.85228    335.71003   -340.74324   -1200.5236    41.378571    41.378571    82.757141 
   17200    1047.0962   -24827.889   -25910.536   -51.546206   -731.03504    619.32284   -42.926424    41.377747    41.377747    82.755493 
   17300    1051.7357     -24827.9   -25915.344   -113.32719   -426.33648   -175.23315    261.58807    41.376336    41.376336    82.752672 
   17400    1043.5364   -24827.878   -25906.844     186.8758     261.5857    110.61645    188.42524    41.374912    41.374912    82.749824 
   17500    1058.1077   -24827.838    -25921.87   -78.640659   -170.93969     42.73907   -107.72135      41.3739      41.3739    82.747801 
   17600    1047.6921   -24827.898   -25911.161    118.98931    95.441971     541.7472   -280.22125    41.372959    41.372959    82.745919 
   17700    1054.4833   -24827.892   -25918.178   -103.18261   -1158.1595    288.30404    560.30762    41.373129    41.373129    82.746258 
   17800    1033.4905   -24827.892   -25896.472    413.27242    1436.9915    126.52682   -323.70106    41.373555    41.373555    82.747109 
   17900    1055.1945   -24827.801   -25918.821   -155.06368   -578.50728   -85.903092    199.21932    41.374907    41.374907    82.749815 
   18000    1057.8802   -24827.732   -25921.529   -289.76099    -434.3956   -131.11176    -303.7756    41.376155    41.376155     82.75231 
   18100    1042.9754   -24827.664   -25906.051    81.047588    314.32159    111.22051   -182.39933    41.376975    41.376975    82.753949 
   18200    1041.2147   -24827.582   -25904.148      119.063   -648.62425    527.99015    477.82309    41.377318    41.377318    82.754636 
   18300    1043.3496   -24827.458   -25906.231   -56.500168   -483.42394     222.5775    91.345941    41.377492    41.377492    82.754985 
   18400    1055.6887   -24827.281   -25918.812   -291.84538   -618.58018    19.120709   -276.07668    41.377308    41.377308    82.754616 
   18500    1060.3184   -24827.121    -25923.44   -295.00242    -372.1667    412.23152   -925.07208    41.376278    41.376278    82.752557 
   18600     1043.182       -24827     -25905.6    237.80907    370.98654    454.30379   -111.86313      41.3747      41.3747    82.749401 
   18700    1044.6971   -24826.866   -25907.033     218.2505      325.542   -46.031649    375.24114     41.37361     41.37361     82.74722 
   18800    1056.5911    -24826.81   -25919.275   -67.364135    416.06595   -198.71575   -419.44261     41.37274     41.37274    82.745481 
   18900    1050.0718    -24826.77   -25912.494    109.40491    433.58558   -576.93645    471.56561    41.372654    41.372654    82.745308 
   19000     1046.188   -24826.696   -25908.404    71.171213    377.83359   -618.25866    453.93872    41.373507    41.373507    82.747014 
   19100    1052.1349   -24826.618   -25914.475   -39.471445   -271.00136    183.55451   -30.967493    41.374611    41.374611    82.749223 
   19200    1046.1997   -24826.603   -25908.323    249.56747    361.62049    123.86712    263.21481    41.375584    41.375584    82.751167 
   19300     1051.394   -24826.549    -25913.64   -47.635849   -372.79015   -131.67383    361.55643    41.377311    41.377311    82.754622 
   19400    1040.0836    -24826.48   -25901.877    92.582925    63.195812    234.61949   -20.066531    41.378878    41.378878    82.757756 
   19500     1062.016   -24826.373   -25924.446   -431.59505   -937.12441   -426.84849    69.187753    41.379952    41.379952    82.759904 
   19600    1051.4086   -24826.255   -25913.361   -295.95315   -778.57526    129.34416   -238.62837    41.380076    41.380076    82.760152 
   19700    1040.8013   -24826.195   -25902.333    153.31647   -217.90303    65.470236    612.38222    41.378872    41.378872    82.757744 
   19800     1050.561   -24826.067   -25912.297   -93.912986   -466.31346   -488.84368    673.41818    41.377819    41.377819    82.755637 
   19900    1065.4005   -24825.919   -25927.492   -294.05893   -458.89028   -94.379487   -328.90701    41.376806    41.376806    82.753613 
   20000    1040.9283    -24825.84    -25902.11     281.3784    223.77497     102.2368    518.12344    41.375614    41.375614    82.751229 
   20100    1055.6099   -24825.794   -25917.244    74.698314    167.41817    414.86261   -358.18584    41.375104    41.375104    82.750208 
   20200     1043.355    -24825.85   -25904.629    393.72159    733.95599   -91.075939    538.28473    41.374768    41.374768    82.749535 
   20300    1048.0304   -24825.951   -25909.564    216.39759    343.51529    53.004564    252.67292    41.374942    41.374942    82.749884 
   20400    1044.1336    -24826.03   -25905.614    216.77593   -542.07855    532.28613    660.12021    41.375753    41.375753    82.751507 
   20500    1047.9905    -24826.08   -25909.652   -7.9852846   -372.08005    580.80869   -232.68449    41.376851    41.376851    82.753702 
   20600    1056.5755    -24826.14   -25918.589   -197.20198   -21.090121   -390.78043   -179.73539    41.377466    41.377466    82.754933 
   20700     1035.321   -24826.204   -25896.676    347.03517    125.43234     357.0119    558.66129    41.377709    41.377709    82.755418 
   20800    1044.4407   -24826.221   -25906.123    22.715662    843.73292    32.369723   -807.95565    41.378202    41.378202    82.756403 
   20900     1056.291   -24826.214   -25918.368   -209.72852   -309.98164   -238.93917   -80.264742    41.378395    41.378395     82.75679 
   21000    1032.1168   -24826.241     -25893.4    407.98928   -253.37832    1304.6122    172.73392    41.377906    41.377906    82.755812 
   21100    1053.4877   -24826.239   -25915.494   -180.77531   -227.77418   -274.50986   -40.041881    41.377547    41.377547    82.755094 
   21200     1038.483   -24826.334   -25900.075    333.17574   -39.725888    909.12536    130.12775    41.376204    41.376204    82.752408 
   21300    1060.0619   -24826.386   -25922.439   -161.85533   -346.18818   -168.84049    29.462684    41.375111    41.375111    82.750222 
   21400    1046.7541   -24826.472   -25908.766    232.75261    123.11397    440.07221    135.07165     41.37386     41.37386    82.747719 
   21500    1055.9226   -24826.588   -25918.361    42.647473   -23.185638   -439.38093    590.50899    41.373175    41.373175     82.74635 
   21600     1050.309   -24826.712   -25912.681    93.371696   -9.8135956    116.34253    173.58615    41.373406    41.373406    82.746812 
   21700    1058.2147   -24826.789   -25920.932   -279.98486   -273.66306   -478.41786   -87.873648    41.374519    41.374519    82.749038 
   21800    1047.4533   -24826.779   -25909.796    139.98361     359.4887     -308.886    369.34813    41.376209    41.376209    82.752418 
   21900     1045.481   -24826.728   -25907.705    90.858288   -82.061512    153.45411    201.18226    41.378393    41.378393    82.756786 
   22000    1058.4516   -24826.702    -25921.09   -303.06967   -176.03048   -940.38273     207.2042    41.380147    41.380147    82.760294 
   22100    1049.2031   -24826.713   -25911.539   -237.98694   -300.71348   -639.51563     226.2683     41.38068     41.38068    82.761361 
   22200    1048.9214   -24826.685   -25911.219   -158.81209   -447.56532   -193.26708    164.39612    41.380308    41.380308    82.760616 
   22300    1048.3324   -24826.599   -25910.524   -34.943125   -453.39767    -94.51934    443.08764    41.379489    41.379489    82.758977 
   22400    1044.3751   -24826.535   -25906.368  -0.38309479   -348.96036    295.90043     51.91064    41.377997    41.377997    82.755995 
   22500    1050.5997   -24826.384   -25912.653   -168.54698   -601.59953    224.91918   -128.96061    41.376831    41.376831    82.753663 
   22600    1042.2197    -24826.26   -25903.865    287.06127     75.99295     294.9176    490.27326    41.375274    41.375274    82.750548 
   22700    1056.8343   -24826.125   -25918.841   -181.34143    -283.5085   -375.85205    115.33626    41.374354    41.374354    82.748707 
   22800    1047.5946    -24826.04   -25909.203     145.1199   -145.54162   -162.60692    743.50825    41.373551    41.373551    82.747101 
   22900    1057.1332   -24826.031   -25919.056   -58.330229   -703.89339   -78.743605    607.64631    41.373027    41.373027    82.746053 
   23000    1044.0263   -24826.062   -25905.535     423.5456   -58.099778    287.09833    1041.6382    41.372944    41.372944    82.745888 
   23100    1054.5323   -24826.026   -25916.362    102.54451    -235.2964    325.66083    217.26909    41.374143    41.374143    82.748287 
   23200    1053.4701   -24826.089   -25915.327    38.140767    6.6964109    11.055217    96.670673    41.375412    41.375412    82.750825 
   23300    1051.8581   -24826.163   -25913.733   -8.3311975    528.01788   -475.57424   -77.437239    41.377153    41.377153    82.754305 
   23400    1049.5145   -24826.278   -25911.426   -141.93232   -128.86397   -262.82707   -34.105919    41.378708    41.378708    82.757416 
   23500    1043.8095   -24826.414   -25905.663    51.384233    176.83691    -418.0652    395.38098    41.379505    41.379505    82.759011 
   23600    1044.7266   -24826.597   -25906.794   -43.532726   -62.802188   -127.10451    59.308524    41.379232    41.379232    82.758463 
   23700    1048.7037   -24826.757   -25911.066   -192.03624   -10.264235   -645.66685     79.82237    41.378248    41.378248    82.756496 
   23800    1055.4446   -24826.891    -25918.17   -144.47413   -415.27595   -423.27896     405.1325    41.376874    41.376874    82.753747 
   23900    1043.7792   -24827.063    -25906.28    181.73892     28.59038   -449.34859    965.97497    41.374913    41.374913    82.749825 
   24000    1049.7241   -24827.161   -25912.525    153.30065    73.485643   -442.26125    828.67757    41.373342    41.373342    82.746685 
   24100    1056.1425   -24827.269   -25919.269   -22.085401   -421.21494   -202.09916     557.0579    41.372298    41.372298    82.744595 
   24200    1049.0909   -24827.373   -25912.082    242.96065    385.95976    65.435619    277.48658    41.371994    41.371994    82.743989 
   24300    1032.5542    -24827.47   -25895.081     518.0545    599.06384    557.63231    397.46735    41.372527    41.372527    82.745055 
   24400    1051.7122   -24827.433   -25914.853    64.242481    295.85421     98.30371   -201.43048    41.374617    41.374617    82.749235 
   24500     1055.194   -24827.451   -25918.471   -135.09799   -650.89656   -79.238388    324.84096    41.376694    41.376694    82.753388 
   24600    1042.5257    -24827.51   -25905.431   -59.611852    129.37045   -640.01789    331.81189    41.378326    41.378326    82.756652 
   24700    1059.4849   -24827.452   -25922.909   -418.78566    -293.7596    -612.5746   -350.02277    41.379762    41.379762    82.759524 
   24800    1037.0967   -24827.492     -25899.8     114.0861    485.41236   -539.38062    396.22655    41.379374    41.379374    82.758749 
   24900    1041.7246   -24827.513   -25904.607    -63.70762   -402.07188   -106.05315    317.00217    41.377963    41.377963    82.755925 
   25000    1037.5779   -24827.521   -25900.326    239.29411     4.102218    133.31535    580.46477    41.375609    41.375609    82.751218 
   25100      1046.54   -24827.488    -25909.56    116.76098    122.24778    144.08232    83.952832    41.373302    41.373302    82.746603 
   25200    1041.0257   -24827.432   -25903.803    416.50388    582.11041    504.22701    163.17422    41.371705    41.371705     82.74341 
   25300    1056.0528   -24827.364   -25919.272    177.66092    -179.0233    619.15559    92.850459    41.371501    41.371501    82.743001 
   25400    1053.3564   -24827.334   -25916.454    6.4529554    496.47348    345.66361   -822.77823    41.372627    41.372627    82.745255 
   25500    1048.8765   -24827.341   -25911.829    150.03584     236.9754   -219.30943    432.44156    41.374231    41.374231    82.748462 
   25600    1041.7221   -24827.363   -25904.453    159.87669   -195.68705    186.48295    488.83416    41.376287    41.376287    82.752574 
   25700    1058.0825   -24827.281   -25921.288   -445.21578   -335.15187   -330.89376    -669.6017    41.378878    41.378878    82.757756 
   25800    1060.5901   -24827.206   -25923.805   -410.45904   -57.579971   -570.04544    -603.7517    41.380596    41.380596    82.761191 
   25900    1052.2577   -24827.159   -25915.142   -293.37901   -276.95275   -248.55801   -354.62627    41.381121    41.381121    82.762243 
   26000    1042.9017   -24827.077   -25905.387    82.981953   -173.91858    -76.40783    499.27227    41.380457    41.380457    82.760915 
   26100    1043.2217   -24827.056   -25905.697    25.259786   -250.28429   -21.016696    347.08035    41.378567    41.378567    82.757133 
   26200    1050.9843   -24827.037   -25913.704   -107.34782    322.10971   -66.999387    -577.1538     41.37608     41.37608     82.75216 
   26300    1050.9375   -24826.999   -25913.618   -52.436059    133.43248    27.074339   -317.81499    41.373622    41.373622    82.747243 
   26400    1065.6582    -24826.93   -25928.769   -202.26957    396.25999   -329.39413   -673.67456    41.371793    41.371793    82.743586 
   26500    1048.2533   -24826.935   -25910.778     418.2775    206.87513    588.25723    459.70015    41.370553    41.370553    82.741106 
   26600     1048.159    -24826.97   -25910.716    270.35557    408.42748    172.67809    229.96113    41.370821    41.370821    82.741643 
   26700    1050.7099    -24827.05   -25913.434    178.73912    114.70503    380.83591    40.676411    41.372266    41.372266    82.744531 
   26800    1043.7829     -24827.1   -25906.322    199.95836   -370.95346    469.67349    501.15504    41.374845    41.374845     82.74969 
   26900    1044.6112   -24827.172    -25907.25    -56.18447    62.135547    508.80268   -739.49164    41.377247    41.377247    82.754494 
   27000    1042.2177    -24827.32   -25904.923   -19.064138   -492.52291    387.40456    47.925941    41.378581    41.378581    82.757161 
   27100    1044.0917   -24827.348   -25906.889   -176.10389   -426.08406    430.81141   -533.03903    41.379646    41.379646    82.759292 
   27200    1044.0503   -24827.279   -25906.777    64.462396    398.32424    327.23903   -532.17608    41.379793    41.379793    82.759585 
   27300    1060.9426   -24827.226    -25924.19   -402.09748   -463.86031    -20.14086   -722.29126    41.379062    41.379062    82.758125 
   27400    1060.5534    -24827.24   -25923.801   -340.26709    73.591119   -674.11203   -420.28035    41.377239    41.377239    82.754477 
   27500    1057.4337   -24827.287   -25920.622   -243.61976    127.03905   -826.15415   -31.744177    41.374788    41.374788    82.749575 
   27600    1059.6311   -24827.384   -25922.991    18.081327   -499.33482   -58.742064    612.32086    41.372134    41.372134    82.744268 
   27700    1039.1249   -24827.464   -25901.869    476.25861    431.67544     69.45926    927.64112    41.370505    41.370505     82.74101 
   27800    1047.1324   -24827.497   -25910.181    311.56262    764.27303   -245.66697    416.08181    41.370667    41.370667    82.741334 
   27900    1045.8475   -24827.553   -25908.909    224.22155    399.35139    350.68829   -77.375036    41.372102    41.372102    82.744205 
   28000    1045.0049    -24827.61   -25908.095    207.93051     274.4242    206.41393     142.9534     41.37449     41.37449    82.748979 
   28100    1056.4721   -24827.637   -25919.978   -212.37544   -169.32782    33.456999    -501.2555    41.377207    41.377207    82.754414 
   28200    1061.8228   -24827.637   -25925.511    -503.0903   -357.97656   -841.11414    -310.1802    41.379384    41.379384    82.758768 
   28300    1045.0298   -24827.629    -25908.14   -110.87921   -255.59804    58.490558   -135.53015    41.380252    41.380252    82.760504 
   28400    1064.3657   -24827.556   -25928.059   -419.67537   -431.31064    -566.3845   -261.33098    41.380246    41.380246    82.760492 
   28500    1049.1542   -24827.647   -25912.422   -166.48898    18.145305   -76.617919   -440.99432    41.378381    41.378381    82.756761 
   28600    1046.3916   -24827.689   -25909.607    83.461994    202.32379   -1.1513871    49.213581    41.376214    41.376214    82.752428 
   28700    1051.9827   -24827.674   -25915.374   -65.984801     593.7875   -645.70476   -146.03715    41.374851    41.374851    82.749703 
   28800    1039.5185   -24827.631   -25902.443     291.9364     30.27155    220.97888    624.55878    41.374075    41.374075    82.748151 
   28900    1035.4697   -24827.542   -25898.168    320.27104    891.08883   -104.96756    174.69187     41.37405     41.37405    82.748101 
   29000     1036.598   -24827.454   -25899.246    465.04074    1102.2336     278.5091    14.379477    41.374315    41.374315    82.748631 
   29100    1044.3605   -24827.391    -25907.21    253.42103    142.08762    435.90247      182.273     41.37492     41.37492     82.74984 
   29200    1056.8776   -24827.318   -25920.078   -94.507164   -415.99766    223.89514   -91.418973     41.37598     41.37598     82.75196 
   29300    1056.5251   -24827.237   -25919.633   -217.11333    151.09413   -491.18154   -311.25258     41.37725     41.37725      82.7545 
   29400    1057.3195   -24827.207   -25920.425   -219.92779   -417.03062   -160.55635   -82.196404    41.377817    41.377817    82.755633 
   29500    1050.0862   -24827.166   -25912.904   -50.772562   -685.99519   -16.673144    550.35065    41.378218    41.378218    82.756436 
   29600    1057.6711   -24827.044   -25920.625   -267.96637   -443.32887   -387.73131    27.161085    41.379249    41.379249    82.758498 
   29700     1039.933    -24827.04   -25902.281    179.59429   -254.01931      249.615    543.18719     41.37917     41.37917     82.75834 
   29800    1047.7527   -24827.028   -25910.354   -126.44064   -86.440527   -388.17549    95.294102    41.378674    41.378674    82.757349 
   29900     1052.479   -24827.053   -25915.266   -178.80042   -472.79636    115.31466   -178.91954    41.377459    41.377459    82.754918 
   30000    1039.9287   -24827.027   -25902.263    258.50474    341.57789    139.69651    294.23983    41.376317    41.376317    82.752634 
   30100    1058.1448    -24826.93   -25921.001   -151.03451    384.17475    -949.6101    112.33181    41.375816    41.375816    82.751632 
   30200    1052.9829   -24826.915   -25915.649    33.793308   -150.67268    647.06723   -395.01463    41.375243    41.375243    82.750486 
   30300    1047.1317   -24826.956    -25909.64    81.819624    -217.5197    363.92166    99.056911    41.374924    41.374924    82.749847 
   30400    1055.5176    -24826.98   -25918.334   -187.96281    69.398213   -89.974213   -543.31243    41.375328    41.375328    82.750656 
   30500    1051.5715   -24826.992   -25914.266     39.32347    1030.5996   -413.77469   -498.85451    41.375989    41.375989    82.751978 
   30600    1065.7434   -24826.971   -25928.898   -371.32255    33.775583   -322.74469   -824.99856    41.377281    41.377281    82.754561 
   30700    1044.6336   -24827.013   -25907.114   -153.86649   -61.028369   -614.23508    213.66399    41.377775    41.377775    82.755549 
   30800      1047.18   -24826.995   -25909.729    57.938213    98.604949    221.15819    -145.9485    41.377604    41.377604    82.755209 
   30900     1044.394   -24826.993   -25906.846     118.1226    464.27982    -418.6373    308.72528    41.376821    41.376821    82.753642 
   31000     1049.523   -24826.963   -25912.119     4.388881    55.756075   -89.900562     47.31113    41.376062    41.376062    82.752125 
   31100    1053.5321   -24826.917   -25916.218   -46.396393    192.68512    93.341838   -425.21613     41.37534     41.37534     82.75068 
   31200    1045.2407   -24826.882   -25907.611    188.86668    228.37073   -61.563574    399.79289    41.374483    41.374483    82.748966 
   31300    1046.0369   -24826.863   -25908.414    185.29281    515.97191    48.395657   -8.4891378    41.374031    41.374031    82.748062 
   31400     1041.248   -24826.784   -25903.385    293.86492    135.74063    839.40626   -93.552134    41.374425    41.374425     82.74885 
   31500    1046.3181   -24826.706   -25908.548    232.02742     174.0024    250.59354    271.48632    41.375008    41.375008    82.750017 
   31600    1041.5561   -24826.648   -25903.567    286.69939   -56.405849     532.7752    383.72882    41.375578    41.375578    82.751155 
   31700    1048.0724   -24826.572   -25910.228    176.31658     15.88006    243.32415    269.74554    41.376296    41.376296    82.752592 
   31800    1062.1308   -24826.488    -25924.68   -380.30885   -183.89447    -482.8996   -474.13249    41.377419    41.377419    82.754839 
   31900    1062.5304    -24826.46   -25925.065    -306.6369   -887.48057    -77.34554    44.915419    41.377849    41.377849    82.755699 
   32000    1053.2165   -24826.488   -25915.463   -152.99865   -42.974483    -225.2399   -190.78157    41.377699    41.377699    82.755399 
   32100    1049.5833   -24826.493   -25911.712   -41.880508   -13.050522   -13.408516   -99.182487    41.377453    41.377453    82.754905 
   32200    1044.9023   -24826.575   -25906.954    111.26101     168.1411   -336.30322    501.94515    41.376576    41.376576    82.753151 
   32300    1046.6782   -24826.607   -25908.822    55.251815   -161.36496   -183.25629     510.3767    41.375931    41.375931    82.751862 
   32400    1047.1352   -24826.639   -25909.327    169.13472   -234.08437    438.82797    302.66055    41.375279    41.375279    82.750557 
   32500    1046.5191   -24826.687   -25908.738    110.34209    177.51933   -22.419744    175.92668    41.374776    41.374776    82.749552 
   32600    1049.2533   -24826.772   -25911.649    111.10924    193.58307   -106.90431    246.64896    41.374337    41.374337    82.748673 
   32700    1039.0446   -24826.789   -25901.111    249.19458    98.352515     249.7239    399.50732    41.374637    41.374637    82.749273 
   32800    1056.3567   -24826.716   -25918.938   -156.12326   -286.54561    36.893036   -218.71721    41.375642    41.375642    82.751284 
   32900    1052.5693    -24826.79   -25915.096   -20.414475   -93.990809   -197.90365    230.65104    41.376015    41.376015     82.75203 
   33000    1058.1873   -24826.877   -25920.991   -182.63822    260.55886   -466.62184   -341.85169    41.376191    41.376191    82.752382 
   33100    1049.7161   -24827.027   -25912.383   -89.785549   -526.81601   -43.298586    300.75795    41.375957    41.375957    82.751914 
   33200    1048.4169   -24827.099   -25911.111    73.818117    316.89563   -266.02553    170.58425    41.375903    41.375903    82.751805 
   33300    1072.3447   -24827.135   -25935.888   -457.90172    96.460848   -694.48583   -775.68018    41.376077    41.376077    82.752153 
   33400    1054.9401   -24827.259   -25918.016    19.559227    44.441386   -522.10284    536.33914    41.375929    41.375929    82.751859 
   33500    1057.7127    -24827.39   -25921.014   -319.81809    -163.1166   -696.16762   -100.17003    41.375957    41.375957    82.751914 
   33600    1043.0217   -24827.561   -25905.995    263.22987    -244.7721    663.01581     371.4459    41.375203    41.375203    82.750406 
   33700    1046.6978   -24827.606   -25909.841    60.520703   -677.51364   -28.491024    887.56678    41.375237    41.375237    82.750474 
   33800    1044.3692   -24827.648   -25907.475    112.88407     420.5706    242.66854   -324.58694    41.375462    41.375462    82.750924 
   33900    1057.8413   -24827.677   -25921.434   -212.17453   -781.65981    39.550765    105.58547    41.375755    41.375755    82.751511 
   34000    1043.5921   -24827.691   -25906.715    196.19521    36.699817    176.23378    375.65203    41.376226    41.376226    82.752452 
   34100    1055.5149    -24827.67   -25919.021   -175.71077   -644.24509   -119.56684     236.6796    41.376929    41.376929    82.753859 
   34200    1036.2472   -24827.641    -25899.07    376.49549    157.08211    837.87055    134.53381    41.377375    41.377375    82.754751 
   34300    1066.2577   -24827.571    -25930.03   -481.36252   -363.27294   -615.80729   -465.00733    41.378257    41.378257    82.756513 
   34400    1038.7946   -24827.553   -25901.616    212.67368    33.793883   -240.60269    844.82985    41.378515    41.378515    82.757029 
   34500    1047.3468   -24827.461   -25910.367    37.377993    428.70108   -154.00777   -162.55933    41.378683    41.378683    82.757366 
   34600    1063.3136   -24827.376   -25926.791   -291.91243   -97.688773   -328.76265   -449.28586     41.37851     41.37851     82.75702 
   34700    1057.8702    -24827.37   -25921.157   -175.54027    260.34076    -710.3771   -76.584453    41.377772    41.377772    82.755543 
   34800    1044.4618   -24827.463   -25907.386    205.28995    257.75872    75.746336    282.36479    41.376253    41.376253    82.752506 
   34900     1038.511   -24827.528   -25901.298     316.4744    718.49411   -174.88846    405.81755    41.375075    41.375075     82.75015 
   35000    1049.2206   -24827.633   -25912.477    146.24474     385.4172   -148.33458     201.6516    41.373644    41.373644    82.747288 
   35100    1055.3674   -24827.682   -25918.881  -0.48568758   -418.86723    137.02966     280.3805    41.372942    41.372942    82.745883 
   35200     1059.241   -24827.695   -25922.899   -66.232632    426.14193   -180.61793    -444.2219    41.373284    41.373284    82.746568 
   35300    1055.8161   -24827.766   -25919.429     78.15873    100.69444   -293.36406    427.14581    41.374079    41.374079    82.748159 
   35400    1049.1076   -24827.812   -25912.539     120.7995   -292.28842    283.59384    371.09307    41.375653    41.375653    82.751307 
   35500    1047.9932   -24827.837   -25911.412 -0.00011592712    616.87119   -200.31238   -416.55916    41.377457    41.377457    82.754913 
   35600    1059.3321   -24827.847   -25923.146    -396.8376   -618.21267   -400.06647   -172.23364    41.378958    41.378958    82.757916 
   35700    1042.9612   -24827.841   -25906.213    8.1737583    5.1460948    245.91414   -226.53896    41.379829    41.379829    82.759658 
   35800    1051.5144   -24827.774   -25914.989   -249.91219     593.6122   -652.16577     -691.183    41.380102    41.380102    82.760205 
   35900    1038.9578   -24827.697    -25901.93    166.82316    635.28642   -7.5898809   -127.22705    41.379725    41.379725     82.75945 
   36000    1057.1933   -24827.595   -25920.682   -268.69821   -138.59216   -329.26633   -338.23614    41.378847    41.378847    82.757694 
   36100    1036.4857   -24827.571   -25899.248     195.1011    97.095371    449.66025     38.54767    41.376963    41.376963    82.753926 
   36200    1054.5424   -24827.526   -25917.872   -70.189654    19.672737    -154.0443   -76.197396    41.374992    41.374992    82.749984 
   36300    1053.6738   -24827.482    -25916.93    11.045499   -182.31115   -71.069062     286.5167    41.373305    41.373305     82.74661 
   36400    1067.2385   -24827.403   -25930.876   -334.14331   -955.41229   -3.1025918    -43.91504    41.372458    41.372458    82.744917 
   36500    1048.0404   -24827.398   -25911.021    227.50206    91.248573    474.21035    117.04725    41.371742    41.371742    82.743483 
   36600    1049.3705    -24827.44   -25912.439    164.26621    372.42301    93.771023    26.604603    41.371692    41.371692    82.743384 
   36700     1042.506   -24827.499     -25905.4    457.09396     124.4007    984.25782    262.62336    41.372615    41.372615    82.745231 
   36800    1049.8138   -24827.521   -25912.978    15.224981   -836.32352    439.53281    442.46565    41.374685    41.374685    82.749371 
   36900    1043.9356   -24827.504   -25906.883    162.73361    -188.1833   -11.968725    688.35287    41.377021    41.377021    82.754042 
   37000    1053.8062   -24827.469   -25917.053   -200.68813   -179.70527   -236.57274   -185.78639    41.379333    41.379333    82.758666 
   37100    1061.2604   -24827.481   -25924.773    -419.9643   -282.58499   -813.44532   -163.86259     41.38059     41.38059     82.76118 
   37200    1044.0697    -24827.53   -25907.047   -49.289748    103.55229   -271.28532    19.863789     41.38048     41.38048    82.760959 
   37300    1049.2362   -24827.509   -25912.369   -184.86966   -754.37367    113.20589    86.558795    41.379904    41.379904    82.759807 
   37400    1046.2988   -24827.472   -25909.295   -55.401489   -78.974864   -115.44465    28.215045     41.37864     41.37864     82.75728 
   37500    1054.5934   -24827.422   -25917.821   -193.92638   -194.07001   -205.91151   -181.79762     41.37683     41.37683    82.753659 
   37600     1066.259   -24827.416   -25929.876   -238.63075    456.07306   -711.47759   -460.48772    41.374683    41.374683    82.749366 
   37700    1057.0135   -24827.388    -25920.29   -56.705872    121.44408   -703.68553    412.12384    41.373402    41.373402    82.746804 
   37800    1051.8444   -24827.339   -25914.896    124.90243    535.86681   -180.18587    19.026366    41.373171    41.373171    82.746342 
   37900    1040.2821   -24827.317   -25902.919    384.68072    687.39419   -293.52474    760.17272    41.373705    41.373705    82.747411 
   38000    1049.2852    -24827.34   -25912.251     198.9482   -435.25117    374.14444    657.95132    41.374672    41.374672    82.749344 
   38100    1046.9661   -24827.351   -25909.864    131.38656   -278.93046    480.24048    192.84967    41.376367    41.376367    82.752735 
   38200    1050.5222   -24827.356   -25913.546   -168.81117    132.16226    62.592519   -701.18828    41.378317    41.378317    82.756633 
   38300    1045.2548   -24827.382   -25908.125    13.620923    37.664965   -176.76484    179.96264    41.379466    41.379466    82.758933 
   38400    1061.5853   -24827.348   -25924.977   -538.52714   -133.58423   -600.78774   -881.20945    41.380354    41.380354    82.760707 
   38500     1048.785   -24827.282   -25911.675   -152.20091    282.56587   -208.74763   -530.42097     41.38044     41.38044     82.76088 
   38600    1061.9954   -24827.212   -25925.264   -308.87963    282.69257   -711.62718   -497.70429    41.379747    41.379747    82.759494 
   38700    1045.9612   -24827.224   -25908.698    7.6506813    575.59975   -131.46953   -421.17817    41.377933    41.377933    82.755866 
   38800    1048.4967   -24827.143   -25911.238   -19.292144   -114.48465    359.59739   -302.98917    41.376225    41.376225     82.75245 
   38900    1057.1025   -24827.009   -25920.002    -53.93307    -11.34199   -175.88717    25.429948    41.374856    41.374856    82.749713 
   39000    1057.9717   -24826.929    -25920.82   -160.01587   -155.34546   -432.52612    107.82399    41.373762    41.373762    82.747523 
   39100    1039.9124   -24826.855   -25902.075    367.05892    974.41265   -239.57825    366.34236    41.373146    41.373146    82.746292 
   39200    1054.0733   -24826.692   -25916.553   -11.628794    899.44303   -446.84863   -487.48079    41.373965    41.373965    82.747929 
   39300    1049.8789    -24826.58   -25912.104    67.513517    349.59967   -471.19384    324.13473    41.374753    41.374753    82.749505 
   39400    1063.6693   -24826.495   -25926.278   -250.88922   -53.360496   -71.474331   -627.83284    41.375737    41.375737    82.751475 
   39500    1047.3049   -24826.451   -25909.314    -46.33588   -341.86458     201.3145    1.5424422    41.376585    41.376585     82.75317 
   39600    1053.1541   -24826.489     -25915.4   -90.022271   -159.08508   -145.53849    34.556763    41.376631    41.376631    82.753262 
   39700    1052.8404   -24826.494   -25915.081   -64.512449   -741.96354    254.03712    294.38907    41.376786    41.376786    82.753572 
   39800    1045.5221   -24826.461   -25907.481    87.833547    166.83615    452.98217   -356.31768    41.377235    41.377235     82.75447 
   39900    1049.4624   -24826.483   -25911.577   -74.420402   -407.30633    237.82719   -53.782062    41.377108    41.377108    82.754216 
   40000    1047.7343   -24826.561   -25909.868    51.076637    264.75706   -76.599619   -34.927534    41.376137    41.376137    82.752275 
   40100    1045.5743   -24826.669   -25907.743    87.293809    335.02543    181.94726   -255.09126    41.374898    41.374898    82.749796 
   40200     1048.527   -24826.686   -25910.813    222.31059    243.11404     262.1335    161.68423    41.374499    41.374499    82.748998 
   40300    1045.0079   -24826.701   -25907.189    181.80329    145.07802    41.988086    358.34375    41.375008    41.375008    82.750015 
   40400    1032.8205   -24826.758   -25894.645     504.4499    370.50419    343.14686    799.69866    41.375638    41.375638    82.751276 
   40500    1056.1535   -24826.737   -25918.749   -125.68688    505.74632   -447.35114   -435.45583    41.376785    41.376785     82.75357 
   40600    1042.5793   -24826.737   -25904.714    231.15248     359.2248    159.44646    174.78619    41.377414    41.377414    82.754828 
   40700    1047.0782   -24826.793   -25909.422   -8.2294299    808.20361   -197.34794   -635.54396     41.37764     41.37764     82.75528 
   40800    1054.8046   -24826.857   -25917.474   -171.44994    -284.1437   -168.99854   -61.207562    41.377398    41.377398    82.754796 
   40900     1048.038   -24826.885   -25910.506   -45.646802    390.94255   -450.32941   -77.553541    41.377079    41.377079    82.754157 
   41000    1047.5342   -24826.882   -25909.982   -33.125241    207.00904   -131.96812   -174.41664    41.376922    41.376922    82.753844 
   41100     1057.839   -24826.916    -25920.67   -343.58056    13.475872   -887.54523   -156.67233    41.376325    41.376325     82.75265 
   41200    1038.1065   -24826.985   -25900.337    367.58566    569.99269     590.2355   -57.471202    41.374985    41.374985    82.749971 
   41300    1056.0635   -24826.991    -25918.91   -22.938252    169.12399    119.84664   -357.78539     41.37447     41.37447    82.748939 
   41400    1050.1678   -24826.997    -25912.82    152.69275    179.63511    301.58954   -23.146408    41.374458    41.374458    82.748916 
   41500    1046.3928   -24827.065   -25908.984    76.376626   -134.73619    294.31881    69.547262    41.374731    41.374731    82.749461 
   41600    1050.5909   -24827.144   -25913.405     19.32252   -12.998329    193.72472   -122.75883    41.375132    41.375132    82.750264 
   41700    1045.4448   -24827.201    -25908.14    138.97197   -221.59655    498.84864    139.66383    41.375703    41.375703    82.751405 
   41800    1051.9939   -24827.229    -25914.94   -65.130016    681.34144   -1228.5706    351.83908    41.376315    41.376315    82.752631 
   41900    1047.1811   -24827.244   -25909.978    45.004567    85.593063   -41.141334    90.561971    41.376724    41.376724    82.753449 
   42000    1050.9291   -24827.236   -25913.846   -52.989945     288.2153   -465.82382    18.638688    41.377032    41.377032    82.754064 
   42100    1045.1335   -24827.304   -25907.922    73.521178    830.94614   -219.78859   -390.59402    41.377054    41.377054    82.754107 
   42200    1059.1088   -24827.374   -25922.442   -199.42276   -271.43542    309.32916   -636.16203    41.376955    41.376955    82.753911 
   42300    1055.8967   -24827.491   -25919.237   -80.894695    -149.4924   -50.952088   -42.239594    41.376264    41.376264    82.752528 
   42400    1048.5593    -24827.63    -25911.79    184.25728     235.6192    -84.11248    401.26511     41.37533     41.37533     82.75066 
   42500    1050.1739    -24827.82   -25913.649    139.17858   -10.226624    -106.1468    533.90915    41.374333    41.374333    82.748667 
   42600    1037.1803   -24827.969   -25900.363    316.79876    63.072876     475.2822    412.04122    41.373902    41.373902    82.747803 
   42700    1042.1443   -24828.002   -25905.529    363.03152   -184.21066    662.15232    611.15289    41.374226    41.374226    82.748452 
   42800    1046.6481   -24828.056    -25910.24    93.406331    55.813846   -168.67429    393.07944    41.375089    41.375089    82.750177 
   42900    1048.9672   -24828.058    -25912.64   -109.46354    16.159848   -451.63958    107.08911    41.376593    41.376593    82.753186 
   43000    1046.3301   -24828.029   -25909.884    88.175023   -158.90217    600.50985   -177.08261    41.377745    41.377745    82.755489 
   43100    1044.0473   -24828.045   -25907.539     95.73147    354.67389   -361.20131    293.72183    41.378036    41.378036    82.756072 
   43200    1063.1656   -24828.014   -25927.277   -486.85917   -689.99813    -260.7665   -509.81289    41.378225    41.378225     82.75645 
   43300    1048.9513   -24828.009   -25912.575    -18.22441   -173.16469    273.21941   -154.72795    41.377874    41.377874    82.755749 
   43400    1059.8031   -24828.043   -25923.828   -331.07866   -941.56372   -71.394824    19.722565    41.377222    41.377222    82.754443 
   43500    1042.4721   -24828.065   -25905.931    22.084769   -700.20857    357.75185    408.71103     41.37618     41.37618     82.75236 
   43600    1055.8165   -24828.083   -25919.746   -55.861987    5.9897334    46.367053   -219.94275    41.374881    41.374881    82.749763 
   43700    1046.6295   -24828.194   -25910.358    302.61999    168.93259   -385.88374    1124.8111    41.373256    41.373256    82.746511 
   43800    1050.1271   -24828.264   -25914.045    240.29389    5.2636537    464.99921    250.61882    41.372799    41.372799    82.745598 
   43900    1043.3093   -24828.335   -25907.067    241.58768   -88.589732    50.243529    763.10925    41.373409    41.373409    82.746818 
   44000    1038.5497   -24828.337   -25902.148    325.11398   -201.41796    906.41455    270.34535    41.374841    41.374841    82.749682 
   44100     1044.934   -24828.326   -25908.737    10.644261   -373.98849    313.23138    92.689884    41.376494    41.376494    82.752989 
   44200    1044.8965    -24828.38   -25908.752    50.619237    367.45228   -23.051149   -192.54342    41.377636    41.377636    82.755272 
   44300     1061.728   -24828.331   -25926.107   -421.10775     -534.094   -538.67633   -190.55292    41.379065    41.379065    82.758131 
   44400    1054.1641   -24828.313   -25918.268   -344.00053   -504.57387    67.348889    -594.7766    41.379402    41.379402    82.758805 
   44500    1039.6061   -24828.299   -25903.202     136.5506    183.35042   -50.234844    276.53623     41.37858     41.37858    82.757159 
   44600    1055.8583    -24828.25   -25919.957   -171.09057   -466.97986   -52.401349    6.1095067    41.377593    41.377593    82.755187 
   44700    1059.2552   -24828.276   -25923.495   -434.51498   -784.83793   -561.12972    42.422713    41.375698    41.375698    82.751396 
   44800    1051.5602   -24828.288   -25915.551    142.13581    194.02136   -3.8400306    236.22608    41.373586    41.373586    82.747171 
   44900     1050.671   -24828.315   -25914.658    93.653563     193.0833    305.87932   -218.00193    41.372235    41.372235    82.744471 
   45000    1053.3629     -24828.3   -25917.427    196.57509    371.56498    247.14266   -28.982365    41.371815    41.371815     82.74363 
   45100    1049.1079   -24828.317   -25913.044     90.67677    58.701539    2.6713472    210.65742    41.372372    41.372372    82.744744 
   45200     1048.275   -24828.325   -25912.191    55.555304     25.22821   -50.343128    191.78083    41.373731    41.373731    82.747461 
   45300    1042.2052   -24828.366   -25905.956    211.54194    316.14693    141.84202    176.63688      41.3751      41.3751    82.750201 
   45400    1050.3284   -24828.326   -25914.315   -90.679203   -194.29247   -17.786893   -59.958251    41.376822    41.376822    82.753644 
   45500    1058.6087   -24828.302   -25922.853   -371.90905   -225.23475   -372.99844   -517.49397    41.378026    41.378026    82.756052 
   45600    1037.0253   -24828.274   -25900.508    165.75723    324.58327   -496.90208     669.5905    41.378348    41.378348    82.756696 
   45700    1053.5363   -24828.182   -25917.487   -258.91569    554.56814     -447.493    -883.8222    41.378455    41.378455     82.75691 
   45800    1047.3281   -24828.122   -25911.008   -2.2854104   -350.05342   -271.19333    614.39052    41.377786    41.377786    82.755572 
   45900    1051.7432   -24828.058    -25915.51    -122.2271   -47.572191   -357.45876    38.349635    41.376853    41.376853    82.753707 
   46000    1056.2332   -24828.008   -25920.102   -222.83455    424.83387   -505.94837   -587.38914    41.375721    41.375721    82.751442 
   46100    1046.6214   -24828.022   -25910.179    210.92019    467.11627   -123.02519    288.66949    41.374254    41.374254    82.748508 
   46200    1047.8271   -24828.036   -25911.438    134.04311    559.22514   -642.97117    485.87537    41.373227    41.373227    82.746455 
   46300    1034.5546   -24828.109   -25897.789    491.66993     538.3186    380.97017    555.72102    41.372309    41.372309    82.744619 
   46400    1051.6414   -24828.166   -25915.513    125.20687     664.3409   -31.573606   -257.14669    41.371948    41.371948    82.743897 
   46500    1051.8887   -24828.252   -25915.854    54.061093    579.41436   -331.84821   -85.382868     41.37225     41.37225      82.7445 
   46600    1049.5147   -24828.281   -25913.428    -40.59261     491.5838   -438.04419   -175.31745    41.373596    41.373596    82.747192 
   46700    1044.0388   -24828.259   -25907.745    121.56907   -105.09547    155.01792    314.78477    41.375393    41.375393    82.750786 
   46800    1044.3739   -24828.245   -25908.077    54.074232   -76.482913    177.04043    61.665183     41.37704     41.37704    82.754081 
   46900    1054.6726   -24828.246   -25918.726   -305.44146    -421.7767   -538.02539    43.477691    41.378255    41.378255    82.756509 
   47000    1049.5178   -24828.235   -25913.386   -103.40053    62.588871    -29.69465   -343.09581    41.378689    41.378689    82.757378 
   47100    1049.7331   -24828.286   -25913.659   -105.15242   -253.03106    142.77646   -205.20265    41.377858    41.377858    82.755717 
   47200    1043.5734    -24828.29   -25907.295    120.35871   -96.863644    355.88114    102.05863    41.376384    41.376384    82.752767 
   47300     1041.604   -24828.299   -25905.267    229.25811    -676.0763   -38.805873    1402.6565    41.374676    41.374676    82.749352 
   47400    1040.2589   -24828.305   -25903.883    293.80487    50.725855   -100.00679    930.69555    41.373142    41.373142    82.746284 
   47500    1048.2765   -24828.235   -25912.102     219.8619   -165.19729    174.32027    650.46272    41.372614    41.372614    82.745228 
   47600    1051.6975   -24828.198   -25915.603    111.79178    444.43012     188.0652   -297.11998    41.372728    41.372728    82.745456 
   47700    1058.0516    -24828.13   -25922.104   -107.73061   -574.60716      314.326   -62.910673    41.374001    41.374001    82.748002 
   47800    1042.7397   -24828.074   -25906.216    213.93178    244.64662   -145.43628    542.58499    41.375684    41.375684    82.751368 
   47900    1057.1972   -24827.962   -25921.053   -236.11876   -598.07173    -566.8709    456.58636     41.37804     41.37804     82.75608 
   48000    1047.8271   -24827.856   -25911.259    -91.14093    107.02953    88.802721   -469.25504    41.379587    41.379587    82.759175 
   48100    1053.7931   -24827.776   -25917.348   -257.79354    137.94609   -438.42384   -472.90287    41.380113    41.380113    82.760226 
   48200    1048.5742   -24827.741   -25911.916    -112.9954    -289.1926   -184.84844    135.05485    41.379375    41.379375     82.75875 
   48300    1050.9132   -24827.609   -25914.202   -212.47608    -521.7775    33.684768   -149.33552    41.378633    41.378633    82.757266 
   48400    1050.0769   -24827.461    -25913.19   -68.567698   -110.97563   -303.44139    208.71392     41.37758     41.37758     82.75516 
   48500    1053.8454   -24827.355   -25916.981   -107.46142    -257.3335    331.08311   -396.13387    41.375909    41.375909    82.751818 
   48600    1049.9772   -24827.291   -25912.916    210.88213    -214.7897    564.80912    282.62695    41.374099    41.374099    82.748198 
   48700    1064.3688   -24827.259   -25927.766   -277.09831    158.07368    228.89051   -1218.2591    41.373223    41.373223    82.746447 
   48800    1049.4873   -24827.222   -25912.342    168.49714    180.63448   -42.638622    367.49556    41.373163    41.373163    82.746326 
   48900    1066.0751   -24827.196   -25929.466   -296.75625   -163.65712   -183.13626   -543.47536    41.374051    41.374051    82.748103 
   49000    1041.8594   -24827.272   -25904.504    285.74425    136.90141   -93.209385    813.54073    41.374899    41.374899    82.749798 
   49100    1049.8611   -24827.302   -25912.808   -139.67875   -246.73902   -396.35882    224.06159      41.3765      41.3765    82.752999 
   49200    1051.5484   -24827.292   -25914.543    -16.09794   -145.63715    129.29876   -31.955432    41.378087    41.378087    82.756174 
   49300    1047.9844   -24827.287   -25910.853   -146.37359   -445.80899    122.22374   -115.53553    41.379267    41.379267    82.758534 
   49400    1061.8104   -24827.239     -25925.1   -555.43709    12.128516    -759.8424   -918.59738    41.379808    41.379808    82.759616 
   49500    1046.7111   -24827.209   -25909.458    -233.3143   -373.32938   -229.50068   -97.112856    41.379116    41.379116    82.758232 
   49600    1059.9398   -24827.072   -25922.999   -289.46587    -183.2609   -937.64173      252.505    41.377828    41.377828    82.755655 
   49700    1052.8884   -24826.924    -25915.56   -78.809823   -2.4728949    13.841962   -247.79854    41.376205    41.376205     82.75241 
   49800    1060.4133   -24826.771   -25923.188   -125.41331    107.55322   -558.62696    74.833805    41.374669    41.374669    82.749339 
   49900    1057.9849   -24826.652   -25920.558   -141.90033   -705.55202    356.63886   -76.787815    41.373845    41.373845     82.74769 
   50000    1047.9807   -24826.599    -25910.16    199.13457   -21.314363    324.85901    293.85906    41.373534    41.373534    82.747067 
Loop time of 1468.22 on 1 procs for 50000 steps with 8000 atoms

Pair  time (%) = 1327.31 (90.4024)
Neigh time (%) = 99.7269 (6.79236)
Comm  time (%) = 8.67126 (0.590596)
Outpt time (%) = 0.63097 (0.0429751)
Other time (%) = 31.8854 (2.1717)

Nlocal:    8000 ave 8000 max 8000 min
Histogram: 1 0 0 0 0 0 0 0 0 0
Nghost:    9090 ave 9090 max 9090 min
Histogram: 1 0 0 0 0 0 0 0 0 0
Neighs:    291849 ave 291849 max 291849 min
Histogram: 1 0 0 0 0 0 0 0 0 0

Total # of neighbors = 291849
Ave neighs/atom = 36.4811
Neighbor list builds = 5000
Dangerous builds = 0
unfix		1

# Melt half the system
region  liquid block INF INF INF INF INF ${nzhalf}
region  liquid block INF INF INF INF INF 10
group	liquid_group region liquid
3979 atoms in group liquid_group

# Heat up one side to Tmelt to make sure it is melted
fix 2 liquid_group npt temp ${Tmelt} ${Tmelt} 1 z 0 0 10 drag 1.0
fix 2 liquid_group npt temp 2000 ${Tmelt} 1 z 0 0 10 drag 1.0
fix 2 liquid_group npt temp 2000 2000 1 z 0 0 10 drag 1.0
run		${eqsteps}
run		50000
Memory usage per processor = 5.95825 Mbytes
Step Temp TotEng PotEng Press Pxx Pyy Pzz Lx Ly Lz 
   50000    1047.9807   -24826.599    -25910.16    199.13457   -21.314363    324.85901    293.85906    41.373534    41.373534    82.747067 
   50100    1056.7881   -24824.194   -25916.862    55.152935    -190.4703    41.751408    314.17769    41.373534    41.373534    82.747201 
   50200    1055.3064   -24818.442   -25909.578    321.88078   -201.66427    538.74041    628.56618    41.373534    41.373534    82.747502 
   50300    1065.3351   -24812.549   -25914.055    242.48952    184.98327    410.82722    131.65808    41.373534    41.373534    82.748004 
   50400    1059.5611   -24807.101   -25902.636    665.11336    612.09385     425.1903    958.05592    41.373534    41.373534    82.748721 
   50500    1062.2046   -24801.035   -25899.303    633.87695    408.69834    394.64781    1098.2847    41.373534    41.373534    82.749773 
   50600    1073.1652    -24794.57   -25904.171    604.78396    268.92673    396.86193    1148.5632    41.373534    41.373534    82.751243 
   50700    1061.8595   -24787.952   -25885.863    969.25096    378.65719    1522.2561    1006.8396    41.373534    41.373534    82.753205 
   50800    1089.9099   -24781.124   -25908.038    636.79429    543.38335    399.89798    967.10153    41.373534    41.373534    82.755569 
   50900    1084.8033   -24774.293   -25895.927    896.10375    604.74144    1442.2613    641.30853    41.373534    41.373534    82.758423 
   51000    1071.3899   -24767.324    -25875.09    1440.1982    1577.5471    1299.7163    1443.3313    41.373534    41.373534    82.761706 
   51100    1082.7955   -24760.334   -25879.892    1387.0235     1649.535    1351.0328    1160.5026    41.373534    41.373534    82.765533 
   51200    1075.9182   -24753.286   -25865.734      1674.35    1376.5796    1925.1099    1721.3607    41.373534    41.373534    82.770031 
   51300    1090.1034   -24746.176   -25873.291    1526.5615    1050.7849    2142.7183    1386.1814    41.373534    41.373534    82.775338 
   51400    1087.1491   -24739.074   -25863.134    1836.4015    1723.5915    2073.9246    1711.6883    41.373534    41.373534     82.78139 
   51500     1094.881   -24731.882   -25863.936    1814.6935     1254.169    2157.7418    2032.1697    41.373534    41.373534    82.788217 
   51600    1097.8241   -24724.713    -25859.81    1892.1013    1752.3765    1876.1279    2047.7997    41.373534    41.373534    82.795997 
   51700    1108.9319   -24717.446   -25864.028    1694.2832    1014.1425    2357.8341    1710.8731    41.373534    41.373534    82.804812 
   51800    1102.4513   -24710.154   -25850.036    2106.9947    2060.6464    2381.7289    1878.6089    41.373534    41.373534    82.814449 
   51900    1103.1812   -24702.824   -25843.461    2115.0214    2052.8914    2492.2225    1799.9504    41.373534    41.373534    82.824923 
   52000    1098.9892    -24695.53   -25831.832    2325.8247    2335.1916    2747.5141    1894.7684    41.373534    41.373534    82.836192 
   52100    1114.0309   -24688.186    -25840.04    2086.1212    2219.5322    2350.5904     1688.241    41.373534    41.373534    82.848276 
   52200    1111.9903   -24680.796   -25830.541    2405.4886    2120.4677    2249.6689    2846.3293    41.373534    41.373534    82.861091 
   52300    1119.4479   -24673.443   -25830.898    2303.9704    2613.4567    2679.2373    1619.2172    41.373534    41.373534    82.874867 
   52400    1118.2652    -24666.03   -25822.262    2429.3133     2163.174    2826.1623    2298.6036    41.373534    41.373534    82.889429 
   52500    1123.1323   -24658.543   -25819.808     2541.689    2968.2142    2279.1209    2377.7319    41.373534    41.373534    82.904878 
   52600    1121.4484   -24651.133   -25810.657    2657.9897    3060.2375    2601.1584    2312.5733    41.373534    41.373534    82.921248 
   52700     1128.152   -24643.647   -25810.102    2460.4259    2684.9318    2470.4748    2225.8712    41.373534    41.373534    82.938441 
   52800    1142.5984   -24636.094   -25817.486    2258.3946     1900.666    3366.2869     1508.231    41.373534    41.373534    82.956375 
   52900    1132.8092   -24628.602   -25799.872     2660.841     2760.719    2326.6958    2895.1082    41.373534    41.373534    82.974887 
   53000    1136.6432   -24621.088   -25796.323    2615.3217    2694.4404    2820.8044    2330.7203    41.373534    41.373534    82.994314 
   53100    1153.3187   -24613.489   -25805.965    2162.2954    1801.7875     2489.759    2195.3399    41.373534    41.373534      83.0146 
   53200    1155.9424   -24605.883   -25801.072    2174.3571    2509.2165    2260.9758    1752.8789    41.373534    41.373534    83.035667 
   53300    1141.2467   -24598.272   -25778.266    2628.4966    2752.5365    3148.4391    1984.5143    41.373534    41.373534    83.057373 
   53400    1143.1797   -24590.585   -25772.578    2680.0223     2578.597    2736.8925    2724.5772    41.373534    41.373534    83.079734 
   53500    1152.7745   -24582.952   -25774.866    2498.7086    2359.1241    2918.1146     2218.887    41.373534    41.373534    83.102868 
   53600     1164.576   -24575.227   -25779.343    2221.8518    2557.9923    2457.7197    1649.8435    41.373534    41.373534    83.126639 
   53700    1160.4753   -24567.574    -25767.45    2412.9109    2592.4808    3109.2069     1537.045    41.373534    41.373534     83.15091 
   53800    1170.3765   -24559.881   -25769.994    2374.4756    1980.5001    2991.6447    2151.2821    41.373534    41.373534    83.175512 
   53900     1174.978   -24552.117   -25766.988    2143.9581    2646.6409    1802.3256    1982.9079    41.373534    41.373534    83.200552 
   54000    1169.7377   -24544.363   -25753.816    2380.8685    2189.9218    3179.1069    1773.5768    41.373534    41.373534    83.226049 
   54100     1173.535   -24536.584   -25749.963    2296.0625    2515.8037    2475.5804    1896.8033    41.373534    41.373534     83.25188 
   54200    1176.9766    -24528.79   -25745.727    2429.3715    3106.4375    2401.9408    1779.7361    41.373534    41.373534    83.277985 
   54300    1188.3698    -24520.96   -25749.677    2098.4086    2443.8135    2291.0598    1560.3525    41.373534    41.373534    83.304298 
   54400    1179.7515   -24513.104    -25732.91    2344.1969    2504.4696    2735.1135    1793.0076    41.373534    41.373534    83.330676 
   54500    1185.4685   -24505.256   -25730.974    2216.7355    1962.5663    2854.1307    1833.5095    41.373534    41.373534    83.357111 
   54600    1181.4725     -24497.4   -25718.985    2313.8569    1864.4837    2847.4548    2229.6321    41.373534    41.373534    83.383699 
   54700    1179.4164   -24489.565   -25709.025    2477.2272    2750.9488     3001.511    1679.2218    41.373534    41.373534     83.41055 
[...]
  336300    1015.2268    -24595.62   -25645.316   -331.30463   -62.826582   -753.23046   -177.85685    41.192611    41.192611    84.632581 
  336400    1024.0962   -24595.678   -25654.545    78.392829    684.23035   -142.39505   -306.65681    41.191683    41.191683    84.563675 
  336500    1029.3901   -24595.695   -25660.035    624.24951    765.05794     621.3459    486.34468    41.191061    41.191061    84.460387 
  336600    1034.4664   -24595.645   -25665.233    725.29541    42.284979    1432.7483    700.85295    41.190927    41.190927    84.406651 
  336700    1022.9097   -24595.694   -25653.333    696.02624    580.00569    785.74477    722.32827    41.191305    41.191305    84.454833 
  336800    1022.7441   -24595.726   -25653.194   -67.435365    117.08505    172.17664   -491.56778     41.19189     41.19189    84.566707 
  336900    1010.2148   -24595.681   -25640.195   -139.75926   -162.93035   -4.4658436    -251.8816    41.192379    41.192379    84.615392 
  337000     1031.412   -24595.686   -25662.116    -962.0799   -1337.8068   -1515.0756   -33.357338    41.192609    41.192609    84.627584 
  337100    1007.9013   -24595.678   -25637.799   -383.06081   -756.06049   -493.36808    100.24614    41.192281    41.192281    84.647994 
  337200    1025.3209    -24595.71   -25655.842   -580.22812   -318.77772   -496.70868   -925.19797    41.191591    41.191591     84.63234 
  337300    1015.5032    -24595.72   -25645.701    309.72905    167.95139    224.82179    536.41397    41.190744    41.190744    84.551843 
  337400     1027.726   -24595.716   -25658.336    367.04786    438.02408    547.77583    115.34367    41.189944    41.189944    84.495594 
  337500    1029.9245   -24595.705   -25660.597     418.9843    753.44924   -13.276484    516.78015    41.189409    41.189409    84.468377 
  337600    1031.9643   -24595.725   -25662.726    86.399042   -344.44172    363.61521    240.02364    41.189105    41.189105    84.503691 
  337700    1019.0289   -24595.728   -25649.355     59.12381   -261.07571    888.55655    -450.1094    41.188889    41.188889    84.566851 
  337800    1034.6903   -24595.729   -25665.549   -433.50951    226.29392   -622.23181   -904.59063    41.188727    41.188727    84.576934 
  337900    1014.5808   -24595.723   -25644.751    419.20779    234.07027    375.17112    648.38198    41.188539    41.188539    84.528877 
  338000    1028.9231   -24595.725   -25659.582    257.67642   -616.19955    704.05429    685.17452    41.188468    41.188468    84.522662 
  338100    1026.8603   -24595.729   -25657.454     80.50848     27.29269    184.26012     29.97263    41.188485    41.188485    84.552444 
  338200    1023.6288   -24595.725   -25654.108   -90.469014   -538.11016    740.91738   -474.21425    41.188604    41.188604    84.587173 
  338300    1035.1237    -24595.73   -25665.998   -410.34961   -675.65148   -242.27504   -313.12232    41.188733    41.188733    84.577781 
  338400    1024.6866   -24595.724     -25655.2    277.77253     70.58791    601.72994    160.99974    41.188727    41.188727    84.548871 
  338500     1030.235   -24595.729   -25660.942     18.31962   -297.50089    575.18048   -222.72074    41.188671    41.188671    84.541741 
  338600     1028.366   -24595.725   -25659.006    -126.0212    1.8113798   -218.53715   -161.33783    41.188566    41.188566    84.558007 
  338700    1031.3734   -24595.729    -25662.12   -341.79887    1.1337816   -278.98034   -747.55005    41.188415    41.188415     84.57072 
  338800    1021.5056   -24595.731   -25651.918    262.71218    -544.7613    1041.4793     291.4186    41.188271    41.188271    84.544965 
  338900     1018.811   -24595.728   -25649.129    491.28315    333.76124     1099.299    40.789186    41.188244    41.188244    84.523948 
  339000    1021.6675   -24595.739   -25652.094    365.39038    21.122016    671.25334    403.79578    41.188454    41.188454    84.530879 
  339100    1026.6161   -24595.731   -25657.202    125.60611    164.75335    753.81294   -541.74797    41.188811    41.188811    84.550748 
  339200     1021.527   -24595.739   -25651.949     517.7228    404.03962    1259.3937   -110.26493    41.189339    41.189339    84.511117 
  339300    1020.8787   -24595.746   -25651.285    822.39348    695.41199    1150.6268    621.14163    41.190132    41.190132    84.464587 
  339400    1038.6727   -24595.751   -25669.688    422.22787    -190.0059    1826.2133   -369.52375    41.191163    41.191163    84.454587 
  339500     1027.495   -24595.776   -25658.156    763.73453    375.51273    934.88664    980.80421    41.192429    41.192429    84.471227 
  339600     1035.278   -24595.756   -25666.184   -46.695269   -148.07622    1035.8743   -1027.8839    41.193803    41.193803    84.523343 
  339700     1022.361   -24595.769   -25652.841    435.69745    1263.9784    258.72438   -215.61043    41.195221    41.195221    84.495396 
  339800    1017.5824   -24595.767   -25647.898    666.14048    407.26665    1128.2191    462.93569      41.1967      41.1967    84.469879 
  339900    1033.9595   -24595.772   -25664.836    22.493691   -148.70635    491.92442     -275.737    41.198186    41.198186    84.481593 
  340000    1027.2228    -24595.77   -25657.869   -27.623416   -64.519635    98.917159   -117.26777    41.199541    41.199541    84.482424 
  340100    1023.8954   -24595.773   -25654.432    250.30825    75.562682      885.906   -210.54394    41.200764    41.200764    84.471691 
  340200     1023.582   -24595.784   -25654.118    373.45132   -129.49628    1205.1078    44.742474    41.202062    41.202062    84.450113 
  340300    1025.4393    -24595.79   -25656.045    350.16322    460.49479      759.224   -169.22914    41.203443    41.203443    84.418235 
  340400    1022.9501   -24595.806   -25653.488    849.86676    636.68373    1243.0856    669.83099    41.204959    41.204959    84.363366 
  340500    1039.6977   -24595.808   -25670.805    598.10578    661.43501    642.64023     490.2421    41.206699    41.206699    84.356938 
  340600    1019.0605   -24595.823   -25649.483    877.72435    853.59388    920.46705    859.11211    41.208583    41.208583    84.400927 
  340700    1024.6228   -24595.864   -25655.274   -198.83456    411.62623   -558.89858   -449.23131    41.210424    41.210424    84.492632 
  340800    1012.0195   -24595.827   -25642.207     -478.695    45.005975   -705.11825   -775.97272    41.211892    41.211892    84.559427 
  340900    1014.7829   -24595.858   -25645.095   -360.31194   -283.55587   -30.137898   -767.24204    41.212906    41.212906    84.533309 
  341000    1031.8219   -24595.879   -25662.733   -283.61724    901.00585   -1017.8208   -734.03677     41.21359     41.21359    84.453908 
  341100    1033.4224   -24595.875   -25664.384    366.94251    593.49042    538.30883   -30.971725    41.214174    41.214174    84.373668 
  341200    1021.6833   -24595.868   -25652.239    1169.6423    1233.6715    1575.0609    700.19439    41.215024    41.215024    84.313827 
  341300     1030.051   -24595.872   -25660.895    929.19155    1834.2111    691.30078    262.06275    41.216266    41.216266    84.306028 
  341400    1028.0502   -24595.902   -25658.856    733.04968     1244.983    523.42106      430.745    41.217824    41.217824    84.338477 
  341500    1039.1992   -24595.898    -25670.38   -121.51465    131.34003    391.99449   -887.87848    41.219573    41.219573      84.3946 
  341600    1031.9967   -24595.898   -25662.933    -175.0658     305.4953   -530.58913   -300.10355    41.221315    41.221315    84.409097 
  341700    1022.9944   -24595.891   -25653.618    5.8873858    119.04213   -42.644833   -58.735137    41.222867    41.222867     84.41397 
  341800    1035.5965   -24595.901   -25666.658   -221.66033   -451.46247    264.64771   -478.16623     41.22419     41.22419    84.430848 
  341900    1032.4548   -24595.899   -25663.408   -520.50286   -875.44388    221.03231     -907.097    41.225231    41.225231    84.446089 
  342000    1025.7575   -24595.971   -25656.555    225.11257   -71.739811    767.81617   -20.738644    41.226055    41.226055    84.372865 
  342100    1039.0829   -24595.932   -25670.294    396.05954     719.1087   -31.375122    500.44506    41.226916    41.226916    84.289527 
  342200    1035.3363   -24595.934   -25666.422    558.14056    690.79753    779.35624    204.26792    41.227914    41.227914    84.288122 
  342300    1021.9136   -24595.937   -25652.547    510.59501   -266.04124    1301.9359    495.89043    41.229127    41.229127    84.328793 
  342400    1039.0227   -24595.967   -25670.267   -509.05449   -549.27311   -874.71466   -103.17571    41.230316    41.230316     84.39585 
  342500    1024.9446   -24595.947   -25655.691   -451.32547   -108.66508   -950.00056   -295.31078    41.231092    41.231092    84.452231 
  342600    1018.7637    -24595.94   -25649.293   -557.37111   -1013.8839   -739.94785    81.718381    41.231428    41.231428    84.482017 
  342700    1024.1898   -24595.947    -25654.91   -735.27241   -605.66536   -277.49528   -1322.6566    41.231289    41.231289    84.498038 
  342800    1025.6142   -24596.063   -25656.499   -140.53574   -58.534561    387.53957   -750.61222    41.230937    41.230937    84.401713 
  342900    1035.7251   -24596.059   -25666.948    639.10861   -10.413395    1092.1651    835.57414    41.230766    41.230766    84.260656 
  343000     1027.257   -24596.008   -25658.143    1180.0336    1731.0741    458.78315    1350.2436    41.230969    41.230969    84.222519 
  343100     1034.302   -24596.061    -25665.48     438.7545    1078.8533    379.28735   -141.87716    41.231635    41.231635    84.298195 
  343200    1030.2231   -24596.044   -25661.246   -52.199641   -194.45634   -268.90416    306.76157    41.232559    41.232559    84.369123 
  343300    1032.1179    -24596.03    -25663.19   -418.32448    452.46529   -465.48171    -1241.957    41.233337    41.233337    84.428556 
  343400    1024.1416   -24596.055   -25654.968   -74.668748    -292.3606    81.688407   -13.334055    41.233916    41.233916     84.39526 
  343500    1034.8829   -24596.042   -25666.061   -129.01517   -115.11308   -780.58065    508.64821    41.234364    41.234364    84.352397 
  343600    1037.6415   -24596.068   -25668.939   -234.53172   -947.47429   -332.56948    576.44861    41.234602    41.234602    84.374488 
  343700    1019.1143    -24596.07   -25649.785   -459.62126    -1009.368   -31.914661   -337.58109    41.234565    41.234565    84.450867 
  343800    1031.8366   -24596.062   -25662.931   -953.21062   -919.24709   -1276.5515   -663.83327    41.234162    41.234162    84.476006 
  343900    1034.1699   -24596.068    -25665.35   -764.72553   -912.89935   -458.31075   -922.96651    41.233382    41.233382    84.441722 
  344000    1025.9211   -24596.068   -25656.821    10.466606    -626.0471    234.07667    423.37025    41.232405    41.232405    84.385712 
  344100    1024.9682   -24596.069   -25655.836    271.21719    -356.4599    410.40526     759.7062    41.231489    41.231489    84.358189 
  344200    1038.4554    -24596.09   -25669.803   -337.18086   -1094.4994   -365.21415    448.17094     41.23073     41.23073    84.384423 
  344300    1032.4685   -24596.081   -25663.603   -524.59428   -825.22919   -264.19889   -484.35475    41.229937    41.229937    84.444371 
  344400    1027.8272   -24596.087    -25658.81   -408.52424   -357.49899    100.88929   -968.96303     41.22911     41.22911    84.437821 
  344500    1029.8158   -24596.117   -25660.897    183.29497    125.77004    368.38122    55.733635    41.228359    41.228359    84.366052 
  344600    1033.1413     -24596.1   -25664.318    643.83618    574.21924    1317.1976    40.091753    41.227839    41.227839    84.314392 
  344700     1025.945   -24596.086   -25656.864    688.90949    148.76515    680.90926    1237.0541    41.227738    41.227738    84.290763 
  344800    1021.0487   -24596.147   -25651.862    601.79008    1039.3768   -570.95006    1336.9435    41.227886    41.227886    84.341411 
  344900    1018.3244   -24596.161   -25649.059   -135.91096   -53.668956   -467.02471    112.96078    41.228068    41.228068    84.451271 
  345000    1014.6414   -24596.146   -25645.237   -862.58706   -798.14006    -968.7705   -820.85061    41.228061    41.228061     84.53888 
  345100    1021.5052   -24596.138   -25652.325   -1089.9789   -1468.3278   -769.91648   -1031.6924     41.22762     41.22762     84.54661 
  345200    1022.7678   -24596.246   -25653.739   -427.71364   -860.29142    307.59019   -730.43969    41.226791    41.226791    84.454862 
  345300    1028.0763   -24596.294   -25659.276    629.07935     850.6366    1343.5191   -306.91769    41.226033    41.226033    84.310014 
  345400    1031.6044   -24596.226   -25662.855    1337.7021    514.24742    2126.6562    1372.2026    41.225864    41.225864    84.197985 
  345500    1038.3815   -24596.273    -25669.91    1075.2019    794.44014    989.86671    1441.2989    41.226361    41.226361     84.22492 
  345600    1015.1192   -24596.423   -25646.008    466.73392    537.96779    231.86199    630.37197    41.227284    41.227284    84.369921 
  345700    1025.7388   -24596.398   -25656.963   -866.54361    -145.1227   -1584.6494   -869.85872    41.228121    41.228121    84.528969 
  345800    1030.4426   -24596.338   -25661.766   -1354.7851   -1434.5088   -1295.4155   -1334.4308    41.228419    41.228419    84.574819 
  345900    1017.6089   -24596.366   -25648.525   -548.52683   -653.08349   -690.85872   -301.63828     41.22813     41.22813    84.509529 
  346000    1031.9314   -24596.418   -25663.386   -190.41517    -532.0913    346.47424   -385.62846    41.227531    41.227531    84.417431 
  346100    1033.4425   -24596.416   -25664.946     473.4978    354.95063    611.21758    454.32519    41.226967    41.226967    84.316953 
  346200    1020.6487    -24596.38   -25651.681    990.51621    187.76731    2372.1362    411.64517    41.226768    41.226768    84.280124 
  346300    1030.0542     -24596.4   -25661.427    705.02806    880.99493    948.11888    285.97037     41.22712     41.22712    84.305675 
  346400    1032.9382   -24596.435   -25664.443    243.43823    190.83584    433.44593    106.03292    41.227852    41.227852    84.371675 
  346500    1026.3602   -24596.423    -25657.63    -83.42609    315.28792   -218.02019     -347.546      41.2286      41.2286    84.443245 
  346600    1016.0887   -24596.411   -25646.998   -416.27913   -141.50119   -941.03915   -166.29704    41.229207    41.229207    84.474553 
  346700     1019.409   -24596.419   -25650.439   -210.49539   -1.0645149   -41.776918   -588.64472    41.229513    41.229513    84.465648 
  346800    1039.8845   -24596.474   -25671.665   -489.58882   -431.39065   -530.14396   -507.23185     41.22968     41.22968    84.399667 
  346900    1030.9706    -24596.45   -25662.424    230.18123    746.49528    217.97128   -273.92287    41.229799    41.229799    84.326145 
  347000    1034.3351   -24596.434   -25665.887    603.22853    570.82652    277.16147     961.6976    41.230051    41.230051    84.270382 
  347100    1024.0766   -24596.499   -25655.345     442.9185     828.2245   -88.558095     589.0891    41.230455    41.230455    84.315024 
  347200    1001.7908   -24596.535   -25632.338    98.601206   -396.12805    490.27687     201.6548    41.230864    41.230864    84.433308 
  347300    1026.3945   -24596.493   -25657.736   -1112.8048   -968.76047   -1255.9345   -1113.7194    41.231013    41.231013    84.513838 
  347400    1014.2704   -24596.504   -25645.211   -592.49818   -51.066692   -806.02555    -920.4023    41.230673    41.230673    84.492504 
  347500     1025.507   -24596.585    -25656.91    51.289418   -18.127171   -372.49198     544.4874    41.230087    41.230087    84.382131 
  347600    1028.3953   -24596.518   -25659.829    495.28677   -38.077363    750.19657    773.74111    41.229451    41.229451    84.319153 
  347700    1030.0384   -24596.522   -25661.532    197.78879   -943.06821    1698.6382   -162.20363    41.229044    41.229044    84.340002 
  347800     1026.693   -24596.525   -25658.076    179.25045    95.910041    75.264324    366.57698    41.228861    41.228861    84.356688 
  347900    1023.0519    -24596.53   -25654.317    191.99489   -585.43139    1274.8334   -113.41731    41.228779    41.228779    84.391599 
  348000    1024.8236   -24596.522   -25656.141   -26.911164   -20.421821    55.994891   -116.30656    41.228743    41.228743    84.415712 
  348100    1035.7665   -24596.528    -25667.46    -493.7938   -781.52229   -97.187862   -602.67126    41.228703    41.228703    84.419693 
  348200    1028.9021   -24596.546   -25660.381    52.326781   -352.26422    164.68765    344.55691    41.228649    41.228649    84.381839 
  348300    1028.0924   -24596.557   -25659.555    471.02345    756.37881    537.56879    119.12277     41.22862     41.22862    84.324413 
  348400    1027.0881   -24596.535   -25658.494    686.49442    852.56661    791.15476     415.7619    41.228767    41.228767    84.283451 
  348500    1026.1635   -24596.545   -25657.549    512.00454    147.48263    1108.7936     279.7374    41.229205    41.229205    84.303261 
  348600    1023.5782   -24596.561   -25654.892    308.22301     571.3834   -592.74258    946.02821     41.22984     41.22984    84.346715 
  348700     1028.148   -24596.558   -25659.614   -400.75239   -853.86006    157.31265   -505.70976     41.23039     41.23039    84.418196 
  348800    1030.7208   -24596.553   -25662.269   -310.25166   -870.98544    193.40784    -253.1774    41.230712    41.230712    84.423744 
  348900    1033.3184   -24596.558    -25664.96   -326.29918    398.65619   -501.43713    -876.1166    41.230828    41.230828    84.400687 
  349000    1024.8404   -24596.586   -25656.222    402.05552   -390.48609    1003.1209    593.53173    41.230927    41.230927    84.332724 
  349100    1043.8428   -24596.565   -25675.848    175.26619    177.71906   -65.428845    413.50835    41.231221    41.231221    84.299266 
  349200    1024.6431   -24596.569   -25656.001    431.10718    366.63436    572.33338    354.35378    41.231672    41.231672    84.322225 
  349300    1032.7387   -24596.573   -25664.375   -4.6676934    347.61271   -413.29336     51.67757    41.232324    41.232324    84.349778 
  349400    1021.1162   -24596.564   -25652.349    383.40133    302.27036    1059.7107   -211.77709    41.233003    41.233003    84.374784 
  349500    1024.9601   -24596.576   -25656.335   -49.293285     367.4459   -867.91381    352.58806    41.233723    41.233723    84.392907 
  349600    1029.8698   -24596.574    -25661.41   -210.61522   -310.23762   -382.27315    60.665129    41.234272    41.234272     84.42542 
  349700    1024.8883   -24596.571   -25656.256   -381.82509   -624.37468   -179.87949    -341.2211    41.234556    41.234556    84.444189 
  349800    1033.3462   -24596.573   -25665.003   -556.55831   -1567.2001   -210.80355    108.32874     41.23461     41.23461    84.438242 
  349900    1038.1032   -24596.582   -25669.931   -596.67753    -1017.986   -758.45715   -13.589405    41.234412    41.234412    84.411394 
  350000    1022.7293   -24596.582   -25654.035    179.68207   -103.15884    478.16388    164.04118    41.233973    41.233973    84.372408 
Loop time of 5701.76 on 1 procs for 200000 steps with 8000 atoms

Pair  time (%) = 5150.27 (90.3277)
Neigh time (%) = 396.122 (6.94737)
Comm  time (%) = 32.3257 (0.566943)
Outpt time (%) = 2.50011 (0.043848)
Other time (%) = 120.544 (2.11415)

Nlocal:    8000 ave 8000 max 8000 min
Histogram: 1 0 0 0 0 0 0 0 0 0
Nghost:    8193 ave 8193 max 8193 min
Histogram: 1 0 0 0 0 0 0 0 0 0
Neighs:    285875 ave 285875 max 285875 min
Histogram: 1 0 0 0 0 0 0 0 0 0

Total # of neighbors = 285875
Ave neighs/atom = 35.7344
Neighbor list builds = 20000
Dangerous builds = 0
unfix		4
