LAMMPS (13 Jan 2014)
dimension       3
boundary        p p p
units           metal

atom_style	atomic
neighbor	0.3 bin
neigh_modify	every 10 delay 0 check no

# Number of steps for the equilibration steps
variable        eqsteps equal 50000

# Number of steps to run our NPH simulation
variable        simsteps equal 200000

# Our trial melting temperature
variable	T equal 1125.0
variable	T2 equal 2*${T}
variable	T2 equal 2*1125

# Some high temperature to melt the crystal
variable	Tmelt equal 2000.0

#System size
variable	nx equal 10
variable	ny equal 10
variable	nz equal 20
variable	nzhalf equal ${nz}*0.5
variable	nzhalf equal 20*0.5
variable	a equal 4.050
variable	length equal ${nz}*${a}
variable	length equal 20*${a}
variable	length equal 20*4.05

lattice		fcc ${a}
lattice		fcc 4.05
Lattice spacing in x,y,z = 4.05 4.05 4.05

region         box block 0 ${nx} 0 ${ny} 0 ${nz}
region         box block 0 10 0 ${ny} 0 ${nz}
region         box block 0 10 0 10 0 ${nz}
region         box block 0 10 0 10 0 20
create_box     1 box
Created orthogonal box = (0 0 0) to (40.5 40.5 81)
  1 by 1 by 1 MPI processor grid
create_atoms   1 box
Created 8000 atoms

mass		1 26.9815

pair_style	eam/alloy
pair_coeff	* * Al_potential.alloy Al

velocity	all create ${T2} 1337
velocity	all create 2250 1337

# Create a dump file. This can be visualized with
# e.g. OVITO (http://www.ovito.org/)
dump		id all atom 1000 atomsdump

# 1 fs timestep
timestep	0.001
thermo_style	custom step temp etotal pe press pxx pyy pzz lx ly lz

# output every 100th timestep
thermo		100

# Equilibration the whole system to the trial melting temperature
fix		1 all npt temp ${T} ${T} 1 iso 0 0 3 drag 1.0
fix		1 all npt temp 1125 ${T} 1 iso 0 0 3 drag 1.0
fix		1 all npt temp 1125 1125 1 iso 0 0 3 drag 1.0
run		${eqsteps}
run		50000
Memory usage per processor = 5.95314 Mbytes
Step Temp TotEng PotEng Press Pxx Pyy Pzz Lx Ly Lz 
       0         2250    -24850.86   -27177.252    14639.073    14469.109    14451.527    14996.583         40.5         40.5           81 
     100     1064.603   -24875.457   -25976.205    37471.091    37823.008    37607.623    36982.642    40.590827    40.590827    81.181655 
     200    1061.2287   -24915.787   -26013.047    24899.006    25692.413    24830.283    24174.322    40.809506    40.809506    81.619013 
     300    1040.6589   -24936.954   -26012.945    15382.661    15554.439    15011.797    15581.748    40.992903    40.992903    81.985807 
     400    1031.2543     -24944.3   -26010.568    8690.6372    8947.6626    8599.2184    8525.0308    41.129301    41.129301    82.258602 
     500    1011.6579    -24944.59   -25990.595    3740.2274    3708.5099    3559.2761    3952.8963    41.239398    41.239398    82.478797 
     600    996.99599   -24941.005   -25971.851    380.09719    621.23462    518.72814   0.32882202    41.321725    41.321725     82.64345 
     700    1003.2129   -24935.671   -25972.945   -2299.9816   -2911.7847   -1847.0095   -2141.1505    41.374915    41.374915    82.749829 
     800    1009.4107   -24930.301   -25973.983   -3465.8952   -3161.7652   -3685.3183   -3550.6021    41.401423    41.401423    82.802846 
     900    993.15594   -24925.505    -25952.38   -3222.1123   -3135.0087   -3722.8761   -2808.4521    41.405619    41.405619    82.811239 
    1000    1007.2347   -24921.111   -25962.544    -2712.248   -3054.3422   -2700.9606   -2381.4412    41.394101    41.394101    82.788202 
    1100    1019.9973   -24916.835   -25971.463   -1924.2424   -1980.9323   -1934.3843   -1857.4107    41.373478    41.373478    82.746956 
    1200     1016.353   -24912.507   -25963.367   -685.25198   -281.10349   -911.11798   -863.53447    41.349525    41.349525    82.699049 
    1300    1013.0756   -24908.017   -25955.489    749.74056    1068.6658    510.62144    669.93447    41.328201    41.328201    82.656401 
    1400    1030.7579   -24903.421   -25969.175    969.16084    922.18358    940.28033    1045.0186    41.313661    41.313661    82.627322 
    1500    1026.5216   -24898.894   -25960.268     1750.327    2115.1464    1701.2646      1434.57    41.307354    41.307354    82.614708 
    1600    1022.8215   -24894.501   -25952.049    1826.4995     2118.283    1590.1768    1771.0387    41.309691    41.309691    82.619382 
    1700    1036.3809   -24890.198   -25961.766    1105.4873    915.75663    1501.2193    899.48598    41.319113    41.319113    82.638226 
    1800    1035.1559   -24885.942   -25956.244    459.25245    12.625252    466.45455    898.67755    41.332753    41.332753    82.665507 
    1900    1032.5332   -24881.624   -25949.213    55.989254   -226.21875   -101.13072    495.31723    41.347539    41.347539    82.695079 
    2000    1031.3574   -24877.261   -25943.635   -414.05842   -429.35551   -757.12315   -55.696595    41.360868    41.360868    82.721735 
    2100    1028.1306   -24872.878   -25935.916   -602.70535   -1088.1106    -870.4122    150.40676    41.370263    41.370263    82.740527 
    2200    1027.8896   -24868.554   -25931.342   -713.99766   -1220.2178   -235.64849   -686.12664    41.375029    41.375029    82.750058 
    2300    1026.0289   -24864.266   -25925.131   -536.28466    -622.8402   -416.14768   -569.86609    41.375407    41.375407    82.750814 
    2400    1031.3151   -24859.983   -25926.313   -470.93567   -722.62492   -992.00418    301.82209    41.372567    41.372567    82.745133 
    2500    1040.3062   -24855.757   -25931.384   -333.71453    -235.6119   -658.30837   -107.22332    41.367471    41.367471    82.734942 
    2600    1047.6269   -24851.641   -25934.837   -23.655744    91.235887   -793.81795    631.61483    41.361609    41.361609    82.723218 
    2700    1038.5273   -24847.581   -25921.368    488.52623    464.15471      52.2394    949.18457    41.357063    41.357063    82.714126 
    2800    1047.6813   -24843.549   -25926.801    502.78201    -15.93717    798.22146    726.06174    41.355314    41.355314    82.710629 
    2900     1042.523   -24839.644   -25917.562    753.55702     840.1384    822.72308    597.80958    41.356299    41.356299    82.712598 
    3000    1046.5327   -24835.762   -25917.826    530.39486    415.79553    444.56015    730.82889    41.360287    41.360287    82.720574 
    3100    1042.1995   -24831.951   -25909.535    490.57397    255.43931    375.68648    840.59611    41.366393    41.366393    82.732787 
    3200    1045.6418   -24828.094   -25909.237    194.81302    479.85089   -163.12485    267.71303     41.37376     41.37376    82.747519 
    3300    1058.0454   -24824.267   -25918.235   -343.39967   -785.64425   -475.02992    230.47516    41.380698    41.380698    82.761395 
    3400    1053.2694   -24820.453   -25909.483   -445.64575   -486.81728   -324.73909   -525.38089    41.386096    41.386096    82.772193 
    3500      1055.15   -24816.679   -25907.653   -484.93175    39.516975   -1222.6125   -271.69975    41.389136    41.389136    82.778273 
    3600    1050.3919   -24813.003   -25899.058   -345.71663   -447.75787   -961.38477    371.99275    41.389386    41.389386    82.778772 
    3700      1053.88   -24809.306   -25898.967    -98.88698    -348.9558   -53.114811    105.40967    41.388314    41.388314    82.776629 
    3800    1060.7654    -24805.66    -25902.44   -90.218104    20.269796   -185.78449   -105.13962    41.386487    41.386487    82.772973 
    3900    1057.9848   -24802.103   -25896.009     147.8501    288.22399   -109.71773    265.04404    41.384697    41.384697    82.769394 
    4000    1065.3866   -24798.567   -25900.125    108.05422    388.35214   -357.76644    293.57695    41.384071    41.384071    82.768142 
    4100    1062.0836   -24795.196    -25893.34    307.55722    287.59111    342.03051    293.05004    41.384063    41.384063    82.768126 
    4200    1066.4724   -24791.792   -25894.474    249.34985    482.30955    261.93262    3.8073729    41.385574    41.385574    82.771147 
    4300    1062.8398    -24788.45   -25887.375     252.9802    297.14009    200.00963    261.79088    41.388389    41.388389    82.776777 
    4400    1061.0158   -24785.124   -25882.163    257.30047     478.2586   -86.768915    380.41172     41.39212     41.39212    82.784241 
    4500     1081.648   -24781.822   -25900.194   -400.27681     24.13177   -536.23326   -688.72894    41.396045    41.396045     82.79209 
    4600    1060.6607   -24778.631   -25875.303    138.64238     546.1974   -260.17636    129.90609    41.399415    41.399415     82.79883 
    4700    1077.7435   -24775.418   -25889.753   -234.01971   -57.468826   -877.73043    233.14013    41.402937    41.402937    82.805875 
    4800     1072.158   -24772.192   -25880.752   -163.55394   -701.80874   -32.859552    244.00648    41.405851    41.405851    82.811702 
    4900    1074.2542   -24769.026   -25879.754   -221.46088   -686.50951    231.13493   -209.00806    41.407603    41.407603    82.815205 
    5000    1074.7293   -24765.916   -25877.134   -200.75115    159.04787   -250.96323    -510.3381    41.408478    41.408478    82.816957 
    5100     1067.502    -24762.84   -25866.586    50.434576    171.19379   -126.16823    106.27817    41.408675    41.408675    82.817349 
    5200    1084.7215   -24759.741   -25881.291   -182.67447    161.74648   -407.41914   -302.35074     41.40891     41.40891    82.817819 
    5300    1080.5694   -24756.769   -25874.025   -18.857808    358.34876    342.63649   -757.55867    41.408749    41.408749    82.817498 
    5400    1074.0259   -24753.862   -25864.353    251.44908    243.64348   -122.52683    633.23058     41.40891     41.40891    82.817821 
    5500    1076.2993   -24750.993   -25863.835    95.386541   -270.69398    401.49577    155.35783     41.40984     41.40984    82.819681 
    5600    1080.8024   -24748.171   -25865.668    27.791023   -91.505511   -53.108839    227.98742    41.411086    41.411086    82.822171 
    5700    1085.6762   -24745.329   -25867.866    29.741327   -117.12707    113.40384    92.947212    41.412869    41.412869    82.825738 
    5800    1081.0001   -24742.592   -25860.294    68.515598    109.93195   -354.19728    449.81213    41.414624    41.414624    82.829248 
    5900    1071.8264   -24739.895   -25848.112    324.04555   -152.94521    640.65656    484.42531    41.416452    41.416452    82.832904 
    6000    1081.5124   -24737.177   -25855.409    80.115933    127.01115    15.728554    97.608091    41.418773    41.418773    82.837545 
    6100    1085.3957   -24734.449   -25856.696   -222.03431    115.95236   -615.56382   -166.49147    41.421403    41.421403    82.842806 
    6200    1088.7224   -24731.837   -25857.523   -279.72824    -339.2405   -70.277249   -429.66696    41.422934    41.422934    82.845868 
    6300    1080.5728   -24729.319    -25846.58     112.6172   -464.40029    253.53811     548.7138    41.423292    41.423292    82.846583 
    6400    1078.3738   -24726.762   -25841.749    222.23599    782.41819   -137.68043    21.970216    41.423759    41.423759    82.847517 
    6500    1089.8042   -24724.226   -25851.031   -90.377524   -294.74237   -319.66048    343.27028    41.424446    41.424446    82.848891 
    6600    1079.7944    -24721.71   -25838.166    306.35928    364.03364    29.586657    525.45754    41.424934    41.424934    82.849868 
    6700    1083.7093   -24719.271   -25839.774    280.89138    255.00911    -111.9725    699.63753    41.425413    41.425413    82.850826 
    6800    1094.0733   -24716.846   -25848.065    107.32062   -46.399931    588.96516   -220.60337    41.426523    41.426523    82.853046 
    6900    1102.8811   -24714.426   -25854.752   -246.66914   -465.36581    285.31968   -559.96128    41.428511    41.428511    82.857023 
    7000    1085.9005   -24712.117   -25834.885     17.17169   -270.62322    351.22455   -29.086256    41.430118    41.430118    82.860236 
    7100    1090.6602   -24709.842   -25837.532    99.235703   -549.59584    145.33107    701.97188     41.43139     41.43139    82.862779 
    7200     1101.362   -24707.549   -25846.304   -333.95991   -383.26081   -264.31899   -354.29992    41.432847    41.432847    82.865693 
    7300    1099.2722   -24705.374   -25841.968   -152.04741   -37.268073    -655.1734    236.29925    41.433381    41.433381    82.866761 
    7400     1095.128   -24703.258   -25835.567    87.911787   -343.99327    16.526965    591.20167    41.433575    41.433575    82.867151 
    7500    1100.1859   -24701.098   -25838.637    180.71701   -75.858012    59.234629    558.77441     41.43419     41.43419    82.868381 
    7600    1102.7646   -24699.045   -25839.251   -32.701701   -475.56922    301.57016    75.893962     41.43469     41.43469    82.869381 
    7700       1094.3   -24696.998   -25828.452    146.85203    480.74397   -68.839391    28.651521    41.435325    41.435325    82.870651 
    7800    1101.0126   -24695.019   -25833.413    74.718794   -41.565902    139.93712    125.78517    41.435898    41.435898    82.871796 
    7900    1109.8894   -24693.007   -25840.579    -140.6964    382.93233    188.58187    -993.6034     41.43694     41.43694     82.87388 
    8000    1098.3777   -24691.064   -25826.734    117.47042   -126.75487    569.64447   -90.478346    41.437839    41.437839    82.875679 
    8100    1096.1299   -24689.167   -25822.512     221.9467    333.33843     626.0893   -293.58764       41.439       41.439       82.878 
    8200    1099.3934   -24687.281   -25824.001     155.7088    373.41199    343.04537   -249.33095    41.440626    41.440626    82.881253 
    8300     1111.367   -24685.421   -25834.521   -190.55859   -293.11316    171.70909   -450.27171    41.442569    41.442569    82.885138 
    8400    1114.9495   -24683.641   -25836.445   -310.60008    38.094573   -636.55698   -333.33783    41.444034    41.444034    82.888068 
    8500    1115.3462   -24681.913   -25835.127   -450.47623   -552.03121   -291.25872   -508.13875    41.444807    41.444807    82.889613 
    8600    1094.6944   -24680.241   -25812.102    299.24826     13.35538    333.47668    550.91272    41.444783    41.444783    82.889566 
    8700    1097.3049   -24678.587   -25813.147    219.95342    253.03348   -31.395579    438.22237     41.44475     41.44475    82.889499 
    8800    1106.1111   -24676.928   -25820.594    45.370296   -15.726058   -704.82889    856.66583    41.444909    41.444909    82.889818 
    8900    1108.4967   -24675.341   -25821.474    120.88951    58.814604   -327.50345    631.35738    41.445015    41.445015    82.890031 
    9000    1098.6241   -24673.782   -25809.706    364.71919    898.65857   -658.12176    853.62075     41.44552     41.44552    82.891041 
    9100    1124.4601   -24672.191   -25834.828   -271.31155    92.258858   -1037.7483    131.55475    41.446948    41.446948    82.893896 
    9200     1099.188   -24670.661   -25807.169    391.93365    -97.99223    1090.3907    183.40253     41.44847     41.44847     82.89694 
    9300     1105.151    -24669.16   -25811.833      133.361    776.10524   -209.79493    -166.2273    41.450433    41.450433    82.900866 
    9400    1114.5062   -24667.695   -25820.041   -190.12829   -119.55985    432.40513   -883.23015    41.452434    41.452434    82.904868 
    9500    1121.6012   -24666.262   -25825.944   -345.41506   -517.32445   -567.13342     48.21269    41.453911    41.453911    82.907822 
    9600    1111.7898   -24664.946   -25814.484   -13.269461    224.49371    136.41153   -400.71363    41.454131    41.454131    82.908261 
    9700    1099.6006   -24663.632   -25800.566    316.37802    256.73014    460.95231    231.45161    41.454123    41.454123    82.908246 
    9800    1121.4163   -24662.302   -25821.792    -187.3618   -617.36238    398.77576   -343.49878    41.454278    41.454278    82.908555 
    9900    1099.9126   -24660.949   -25798.206     361.6799   -47.349492    404.78355    727.60564    41.454797    41.454797    82.909595 
   10000    1103.5382    -24659.52   -25800.525    226.63184    151.69626    468.04959    60.149666    41.455996    41.455996    82.911991 
   10100    1120.9684   -24658.144   -25817.171   -48.497685    483.37226   -200.59467   -428.27064    41.456948    41.456948    82.913896 
   10200    1117.5542   -24656.912    -25812.41   -121.29612    451.97081    37.069252   -852.92842    41.457199    41.457199    82.914397 
   10300    1119.6827   -24655.688   -25813.386    -24.04549    403.36033   -370.28279   -105.21401     41.45746     41.45746     82.91492 
   10400    1117.2926   -24654.504   -25809.731   -35.233104   -81.935432    449.02749   -472.79137    41.457689    41.457689    82.915378 
   10500     1110.909   -24653.373       -25802    134.03822    -164.7875   -26.508955     593.4111    41.457674    41.457674    82.915347 
   10600    1123.4676   -24652.128   -25813.739   -181.56581    -351.1552   -108.15365   -85.388574    41.458575    41.458575    82.917151 
   10700    1120.6761   -24651.015    -25809.74   -44.586789   -96.222487   -212.94143    175.40355    41.458772    41.458772    82.917544 
   10800    1125.3632   -24650.045   -25813.617   -121.07337   -553.15042    559.14255   -369.21223    41.458324    41.458324    82.916647 
   10900    1123.9246   -24649.118   -25811.202   -93.550849    114.28095   -342.90234   -52.031159     41.45823     41.45823    82.916461 
   11000    1111.9669     -24648.2    -25797.92    189.25073    501.54724   -230.40078    296.60572    41.458119    41.458119    82.916239 
   11100    1129.3402   -24647.312   -25814.995   -147.51831   -805.50121    629.57253   -266.62625    41.458193    41.458193    82.916387 
   11200    1127.1325   -24646.481   -25811.882   -81.431058    227.72597    348.83508   -820.85422    41.458587    41.458587    82.917173 
   11300    1114.4025   -24645.713   -25797.951    348.01318    248.30965    492.15554    303.57436    41.459375    41.459375     82.91875 
   11400    1117.9679   -24644.907   -25800.832    90.012817   -275.96266    439.17591     106.8252    41.461151    41.461151    82.922303 
   11500    1131.0018   -24644.083   -25813.484   -225.49003    155.22528   -483.76586    -347.9295    41.463386    41.463386    82.926772 
   11600    1118.7937   -24643.308   -25800.087    5.2478102   -57.155895   -103.74731    176.64663    41.464974    41.464974    82.929947 
   11700    1110.6552   -24642.541   -25790.905    72.562027    173.98181   -10.312523     54.01679     41.46601     41.46601    82.932021 
   11800    1120.9397   -24641.771   -25800.769   -204.56791   -664.07951    48.505376    1.8704044    41.466514    41.466514    82.933027 
   11900    1110.1831   -24641.007   -25788.883    121.90393    760.75007    410.63004   -805.66831    41.466318    41.466318    82.932636 
   12000    1122.3492   -24640.242   -25800.697    7.3164988     160.2938    195.27989    -333.6242    41.465548    41.465548    82.931096 
   12100     1120.859   -24639.528   -25798.443  0.076119504   -498.36438    341.74921    156.84353    41.464486    41.464486    82.928971 
   12200    1122.7483   -24638.852   -25799.719     71.14049   -456.52773    284.17066    385.77854    41.463346    41.463346    82.926693 
   12300    1120.4953   -24638.341   -25796.879    176.73793    807.70054   -307.00686    29.520116    41.461977    41.461977    82.923955 
   12400     1125.781   -24637.808   -25801.811    165.31229    55.441104   -7.2857412     447.7815    41.461686    41.461686    82.923373 
   12500    1134.4431   -24637.288   -25810.247   -173.91343      170.734   -326.75987   -365.71442    41.462367    41.462367    82.924735 
   12600    1115.1247   -24636.868   -25789.854    209.41334    561.64169    285.12031   -218.52197    41.463278    41.463278    82.926557 
   12700    1118.8945   -24636.501   -25793.385    166.34989   -226.90555    480.29857    245.65665    41.464312    41.464312    82.928625 
   12800    1131.9048   -24636.058   -25806.393    -112.3082    439.37035   -281.74516    -494.5498    41.466152    41.466152    82.932304 
   12900    1136.6837   -24635.636   -25810.912   -517.40198   -1305.6667    292.57293   -539.11213    41.467835    41.467835     82.93567 
   13000    1126.7031   -24635.355   -25800.312   -189.25534   -247.43677    216.80983   -537.13907    41.468049    41.468049    82.936097 
   13100    1136.9951   -24634.959   -25810.558   -408.14472   -1130.0442   -119.24208     24.85212    41.468832    41.468832    82.937663 
   13200    1126.6644   -24634.657   -25799.574   -202.03766   -522.79633    126.85519   -210.17183    41.468918    41.468918    82.937836 
   13300    1125.5352    -24634.34    -25798.09    -188.2742   -1005.2575    637.34829   -196.91343     41.46859     41.46859     82.93718 
   13400    1106.9667   -24634.009   -25778.559     408.7067     567.0655    -174.4174      833.472    41.467834    41.467834    82.935668 
   13500    1120.0903   -24633.618   -25791.738    16.871862   -165.71529   -401.18074    617.51161    41.467469    41.467469    82.934937 
   13600     1118.543    -24633.26    -25789.78    61.870336    271.01378    -253.2599    167.85713     41.46686     41.46686     82.93372 
   13700    1131.5542   -24632.944   -25802.917   -99.122442   -635.02326   -24.610566     362.2665    41.465991    41.465991    82.931982 
   13800    1124.7411   -24632.804   -25795.732    271.57433    1198.3483   -42.348851   -341.27647    41.464425    41.464425    82.928849 
   13900    1119.6165   -24632.765   -25790.395    337.44806    707.98247   -247.89087    552.25258    41.463275    41.463275     82.92655 
   14000    1131.0249   -24632.761   -25802.186    49.872211    519.54945   -405.34385    35.411028    41.462922    41.462922    82.925845 
   14100    1110.4522   -24632.828   -25780.983    463.57812    573.42988    540.64021    276.66427    41.463084    41.463084    82.926168 
   14200    1116.6787   -24632.828    -25787.42    236.69957    596.05385     273.5716   -159.52676     41.46438     41.46438     82.92876 
   14300    1133.2146   -24632.779   -25804.469   -150.19886   -537.00777    79.938669    6.4725033    41.466174    41.466174    82.932349 
   14400    1115.7953   -24632.752   -25786.431    253.38307   -205.76825   -151.32159    1117.2391    41.467971    41.467971    82.935943 
   14500    1125.4782   -24632.641   -25796.331   -229.26669    283.61709   -181.27753   -790.13963     41.47037     41.47037    82.940739 
   14600    1120.5761   -24632.509   -25791.131   -275.39792   -543.84756    -329.7687    47.422511    41.471913    41.471913    82.943826 
   14700    1122.4396   -24632.339   -25792.888   -93.258568   -520.00401   -495.16136    735.38966     41.47222     41.47222     82.94444 
   14800    1111.5167   -24632.173   -25781.428    149.74986    179.68527    381.38028   -111.81598    41.471626    41.471626    82.943253 
   14900    1133.3197   -24631.982    -25803.78   -450.79197   -8.0578432   -792.31253   -552.00555    41.470561    41.470561    82.941123 
   15000    1135.5414   -24631.787   -25805.882   -377.91612   -209.28755   -367.63828   -556.82253    41.468811    41.468811    82.937621 
   15100    1129.4616   -24631.672   -25799.481    69.558185   -426.14167    438.07411    196.74211    41.466499    41.466499    82.932998 
   15200    1139.1032   -24631.571   -25809.349   -211.80357   -155.22705   -896.62811    416.44444    41.464755    41.464755     82.92951 
   15300    1126.8251   -24631.519   -25796.602    155.87778    606.40976   -106.25779   -32.518627    41.463213    41.463213    82.926426 
   15400    1122.6023   -24631.542   -25792.259    106.67649    352.93764   -178.61241    145.70425    41.462076    41.462076    82.924151 
   15500    1125.9379   -24631.583   -25795.749    97.390171    70.013803    81.510183    140.64653    41.461792    41.461792    82.923585 
   15600    1125.6817   -24631.661   -25795.562    213.07608    332.37784    -23.91285    330.76326    41.462452    41.462452    82.924903 
   15700    1124.6806   -24631.749   -25794.615    194.04577    607.64616    13.345641    -38.85449    41.464192    41.464192    82.928385 
   15800    1123.1329   -24631.815   -25793.081     131.4508   -66.283669   -310.83433    771.47041    41.466878    41.466878    82.933755 
   15900    1128.0604   -24631.845   -25798.205   -216.91675   -647.78702   -635.13668    632.17344    41.470264    41.470264    82.940527 
   16000    1135.0448   -24631.856   -25805.437   -548.50417   -685.87148   -591.98535   -367.65568     41.47296     41.47296    82.945919 
   16100    1126.4528    -24631.86   -25796.558   -265.79124   -322.92767   -93.349281   -381.09676    41.474196    41.474196    82.948392 
   16200    1136.0607   -24631.923   -25806.555   -706.17198     -792.249   -893.93577   -432.33117    41.473734    41.473734    82.947468 
   16300    1117.0408   -24632.051   -25787.018    14.075632    120.81476    281.71789   -360.30576    41.471233    41.471233    82.942467 
   16400    1117.2775   -24632.121   -25787.333    120.18961    728.93969   -92.780341   -275.59051    41.468309    41.468309    82.936618 
   16500    1121.6266   -24632.139   -25791.847    80.721903    293.39796   -377.77562    326.54336    41.465456    41.465456    82.930912 
   16600     1121.639   -24632.165   -25791.886    230.65661    362.89784    226.99368    102.07832    41.463135    41.463135    82.926269 
   16700     1120.604   -24632.147   -25790.797    364.70599    617.57233    147.12367    329.42196    41.462069    41.462069    82.924138 
   16800    1125.3951   -24632.179   -25795.783    118.57402    13.278987    142.89407    199.54899    41.462065    41.462065     82.92413 
   16900    1105.1615   -24632.173   -25774.857    611.65056    1303.0622    185.38707    346.50241    41.463166    41.463166    82.926331 
   17000    1140.8521     -24632.1   -25811.686   -399.71817   -379.90415   -637.43936     -181.811    41.465386    41.465386    82.930772 
   17100    1113.5953   -24632.038   -25783.442    415.14113    254.70008    337.79604    652.92725    41.467725    41.467725    82.935449 
   17200    1120.8513   -24631.925   -25790.832   -123.60515   -202.74182   -383.59529    215.52165    41.470476    41.470476    82.940952 
   17300    1119.5456   -24631.873   -25789.429   -23.918084   -63.591087    481.77618   -489.93935     41.47196     41.47196    82.943919 
   17400    1117.7929   -24631.762   -25787.506    6.1075847    318.07612   -702.75617     403.0028    41.472988    41.472988    82.945977 
   17500    1129.7728   -24631.572   -25799.703   -479.61085    34.839902    -661.4632   -812.20924    41.473712    41.473712    82.947423 
   17600    1120.1155    -24631.41   -25789.555    44.118821    33.039982    181.88914   -82.572658    41.472953    41.472953    82.945906 
   17700     1118.813   -24631.361    -25788.16    110.61902   -518.20955    628.67976    221.38683    41.470864    41.470864    82.941727 
   17800    1115.7044   -24631.278   -25784.862    135.83946    268.92066     367.2546   -228.65689    41.468728    41.468728    82.937455 
   17900    1119.1765   -24631.206    -25788.38    155.46705   -327.91962    288.30078       506.02    41.466471    41.466471    82.932943 
   18000    1116.1136   -24631.236   -25785.244    195.69914    181.71657   -256.44586    661.82672    41.464185    41.464185    82.928369 
   18100    1130.7289   -24631.174   -25800.293    4.7342526   -301.50224   -450.30564    766.01063    41.463182    41.463182    82.926364 
   18200    1132.5435   -24631.125   -25802.121    59.479906    64.061955   -187.68749    302.06526    41.463088    41.463088    82.926176 
   18300    1115.9793   -24631.156   -25785.025    364.49615    613.13405    264.76204    215.59235    41.463595    41.463595     82.92719 
   18400    1112.9536   -24631.228   -25781.968    372.49929    560.50907    194.88015    362.10865    41.464715    41.464715     82.92943 
   18500    1107.3599    -24631.23   -25776.187    540.51339    347.53561      656.252    617.75257    41.466619    41.466619    82.933237 
   18600    1138.1936   -24631.172   -25808.009   -380.43342   -194.30734   -750.28971    -196.7032    41.469112    41.469112    82.938223 
   18700    1113.8385   -24631.206   -25782.862    172.26439   -453.08478    573.64238    396.23558    41.470494    41.470494    82.940988 
   18800    1121.3256   -24631.131   -25790.528   -199.06266   -448.48038    75.397538   -224.10514    41.471909    41.471909    82.943818 
   18900    1124.1096   -24631.083   -25793.358   -99.522147   -41.661635   -345.96496    89.060152     41.47183     41.47183    82.943659 
   19000    1124.5561   -24630.994   -25793.731   -74.059313    119.93822   -294.28315   -47.833006    41.471219    41.471219    82.942438 
   19100     1130.349   -24630.866   -25799.592   -311.13673    234.42707   -1035.1188   -132.71847     41.47027     41.47027    82.940539 
   19200    1121.6899   -24630.825   -25790.598    214.06139    768.44445    34.478459   -160.73874    41.468439    41.468439    82.936878 
   19300    1117.5807   -24630.779   -25786.304    188.27134     93.06562    442.29925    29.449161    41.466891    41.466891    82.933783 
   19400     1124.723   -24630.679   -25793.588    130.04678   -69.002444    -396.4387    855.58149    41.465877    41.465877    82.931753 
   19500    1130.7902   -24630.575   -25799.758    23.699879   -357.95684   -78.585121     507.6416    41.465623    41.465623    82.931245 
   19600    1115.1534   -24630.524   -25783.539    434.42159    251.37873    597.57052    454.31553     41.46583     41.46583    82.931661 
   19700    1132.0794   -24630.479   -25800.995   -63.083914   -146.61481     -245.984    203.34707    41.466855    41.466855    82.933709 
   19800    1118.8374   -24630.493   -25787.317      124.045   -57.969427    712.38482   -282.28039    41.467856    41.467856    82.935713 
   19900    1121.6802   -24630.446    -25790.21   -5.6270165   -172.98136    362.06116   -205.96085    41.469201    41.469201    82.938402 
   20000     1137.926   -24630.479    -25807.04   -401.29669   -431.17711   -509.37968   -263.33329    41.469769    41.469769    82.939539 
   20100    1117.6756   -24630.573   -25786.196    172.14522    500.19929    157.82763   -141.59128    41.469347    41.469347    82.938693 
   20200    1121.3615   -24630.685   -25790.119    -33.01609   -18.733811    480.53655   -560.85101    41.468497    41.468497    82.936994 
   20300    1118.5365   -24630.717    -25787.23    128.51956   -477.57043    396.37041     466.7587    41.467805    41.467805     82.93561 
   20400    1128.0232   -24630.767   -25797.089    34.978183     273.9249    140.52743   -309.51778    41.467222    41.467222    82.934444 
   20500    1122.8355   -24630.812    -25791.77    86.770004   -343.51455    100.96797    502.85659    41.466919    41.466919    82.933837 
   20600    1126.4264   -24630.799    -25795.47    81.655757   -157.78074   -13.234335    415.98235    41.467167    41.467167    82.934334 
   20700    1131.0635   -24630.882   -25800.347    -30.08551    243.62102   -514.22876    180.35121    41.467362    41.467362    82.934724 
   20800    1125.7582   -24631.003   -25794.983   -81.290469   -290.14445    215.37795   -169.10491     41.46794     41.46794     82.93588 
   20900    1131.1605    -24631.06   -25800.625   -295.13404    314.58588   -1082.9893   -116.99874    41.468834    41.468834    82.937669 
   21000    1116.9235   -24631.167   -25786.012    134.99069   -150.60449    360.42849    195.14806    41.469063    41.469063    82.938125 
   21100    1144.2199   -24631.195   -25814.264   -432.63456   -666.37238   -477.35194   -154.17936    41.469449    41.469449    82.938898 
   21200    1120.1555    -24631.24   -25789.426    106.54867    82.415899   -62.118338    299.34844    41.469455    41.469455    82.938909 
   21300    1125.4134   -24631.309   -25794.932   -158.16069   -742.53776    127.78108    140.27461    41.469202    41.469202    82.938404 
   21400    1122.0437   -24631.418   -25791.557    18.944696   -703.61938   -210.04663     970.5001     41.46805     41.46805    82.936099 
   21500    1124.7301   -24631.448   -25794.365   -5.6895055   -350.81735     263.3261    70.422731    41.466949    41.466949    82.933899 
   21600    1128.7097   -24631.462   -25798.494    -103.2313   -142.50757   -532.08906    364.90272    41.466079    41.466079    82.932157 
   21700    1122.8685   -24631.493   -25792.485    145.77922    993.28717   -118.68896   -437.26055    41.465221    41.465221    82.930442 
   21800    1122.4186    -24631.53   -25792.057    186.81283    291.02549    35.153767    234.25922    41.464822    41.464822    82.929645 
   21900    1127.0919   -24631.571   -25796.929    39.747577   -564.68028    76.458839    607.46417    41.465342    41.465342    82.930683 
   22000    1128.1566   -24631.593   -25798.053    11.940816    -57.52215    72.275224    21.069375    41.466668    41.466668    82.933337 
   22100    1111.3659   -24631.602   -25780.701    209.06738    490.30714   -3.4164659    140.31147    41.468446    41.468446    82.936892 
   22200    1116.1631   -24631.601    -25785.66    42.312615    318.68251    321.30727   -513.05193    41.470006    41.470006    82.940013 
   22300    1127.6515   -24631.578   -25797.515   -289.49915   -721.69344    78.472667   -225.27669    41.471128    41.471128    82.942256 
   22400     1123.808   -24631.515   -25793.479   -106.09341   -881.28491    237.18604    325.81864    41.471526    41.471526    82.943052 
   22500    1123.2383   -24631.453   -25792.828   -92.402049    410.29005   -75.561549   -611.93465    41.471172    41.471172    82.942344 
   22600    1129.7052   -24631.328   -25799.388   -247.84643    90.914242   -648.64585   -185.80769     41.47052     41.47052     82.94104 
   22700    1122.0279   -24631.235   -25791.357    93.287335    -319.4395    736.20716   -136.90566    41.469055    41.469055     82.93811 
   22800    1131.3449   -24631.073   -25800.829   -81.640581    42.932734   -217.42414   -70.430335    41.468225    41.468225    82.936449 
   22900    1120.0516   -24630.986   -25789.066    122.42997   -586.01785    660.20052    293.10723    41.467435    41.467435     82.93487 
   23000    1112.0758   -24630.941   -25780.774    491.45934    736.49639    609.96077    127.92085    41.467011    41.467011    82.934022 
   23100     1115.196    -24630.83    -25783.89    262.40702    130.10568    493.61591    163.49947    41.467567    41.467567    82.935134 
   23200    1119.9719   -24630.796   -25788.794    238.85194    680.68311    216.42905   -180.55634    41.468139    41.468139    82.936278 
   23300    1126.2728   -24630.786   -25795.298   -11.966162   -4.3370029    5.4144829   -36.975965    41.469099    41.469099    82.938198 
   23400    1135.1078   -24630.741   -25804.388   -330.07481   -61.770549   -456.96878   -471.48509    41.470158    41.470158    82.940317 
   23500    1117.6858   -24630.757   -25786.391    12.163984    88.035849    337.84332   -389.38721    41.470193    41.470193    82.940385 
   23600    1110.8323   -24630.719   -25779.267    217.48631    212.07512    244.68053    195.70328    41.469806    41.469806    82.939612 
   23700    1117.4307   -24630.573   -25785.943    111.22886    465.04471   -57.675927   -73.682212    41.469605    41.469605     82.93921 
   23800    1138.5484    -24630.36   -25807.564   -351.95599   -64.198945   -528.78088   -462.88816    41.469408    41.469408    82.938815 
   23900    1130.5511   -24630.246   -25799.181   -29.656186    250.41386   -188.26078   -151.12164    41.468455    41.468455    82.936911 
   24000    1121.4295   -24630.209   -25789.713    125.16254    598.65919    142.17723    -365.3488    41.467423    41.467423    82.934846 
   24100    1127.8151   -24630.098   -25796.204   -105.45841    478.07633    -622.8978   -171.55375    41.467168    41.467168    82.934337 
   24200    1133.3278   -24629.987   -25801.794   -240.02588    164.34221   -89.595896   -794.82394    41.467069    41.467069    82.934137 
   24300    1119.4887   -24629.886   -25787.383    293.12741    450.13326    384.67098    44.577982     41.46729     41.46729    82.934579 
   24400    1139.9856    -24629.82    -25808.51   -321.76169   -321.05803    150.29912   -794.52616    41.468091    41.468091    82.936181 
   24500    1130.5548   -24629.848   -25798.787   -137.98025   -86.712919   -436.94471    109.71688    41.468623    41.468623    82.937246 
   24600    1110.8122    -24629.89   -25778.417    465.20507    336.59256    390.60724    668.41539    41.468969    41.468969    82.937939 
   24700     1121.265   -24629.875   -25789.209    74.235349    100.81803    61.880548    60.007468      41.4699      41.4699      82.9398 
   24800    1128.9892   -24629.833   -25797.153   -202.21058   -130.86246   -210.42209   -265.34721     41.47086     41.47086     82.94172 
   24900    1126.0427   -24629.805   -25794.079   -42.865108    269.76741   -68.944613   -329.41812    41.471054    41.471054    82.942108 
   25000    1125.0241   -24629.833   -25793.054    -48.08746   -630.60961     419.0562    67.291035    41.470672    41.470672    82.941344 
   25100    1122.7831   -24629.904   -25790.808   -50.343483   -291.99002   -204.24434    345.20391    41.469815    41.469815    82.939631 
   25200    1135.0633    -24629.96   -25803.561   -313.78647    55.692433   -308.01362   -689.03823    41.468941    41.468941    82.937882 
   25300     1124.807       -24630   -25792.996   -57.027842   -510.64546   -107.93491    447.49685    41.468209    41.468209    82.936418 
   25400    1121.5218   -24630.112   -25789.712    286.30697    18.437193     863.1348   -22.651089    41.466985    41.466985     82.93397 
   25500    1139.4152   -24630.244   -25808.344   -430.82598   -405.39878   -561.34189   -325.73725    41.466042    41.466042    82.932085 
   25600    1122.8751   -24630.382   -25791.381    373.09414    23.727968    543.46654    552.08791    41.464927    41.464927    82.929853 
   25700    1130.1292   -24630.507   -25799.006   -148.26269    137.71144   -405.10916   -177.39036    41.464898    41.464898    82.929796 
   25800    1126.2988   -24630.636   -25795.175    150.47722   -142.64744   -45.480865    639.55998    41.465368    41.465368    82.930735 
   25900    1138.2482   -24630.813   -25807.707   -304.19608   -162.70079   -924.81567    174.92823    41.466227    41.466227    82.932454 
   26000    1116.3527   -24631.064   -25785.319     355.2668    540.92574    297.81488    227.05978    41.466669    41.466669    82.933337 
   26100    1124.1595   -24631.339   -25793.665   -22.089319    94.766416    25.794077   -186.82845     41.46711     41.46711     82.93422 
   26200    1120.0551   -24631.631   -25789.714    96.044738    125.93206   -460.68083    622.88298    41.467283    41.467283    82.934566 
   26300    1128.0021   -24631.846   -25798.145    -72.23841    165.00857   -560.62921    178.90542    41.467596    41.467596    82.935191 
   26400    1124.1992   -24632.049   -25794.416   -85.691349    751.62795   -570.32986   -438.37215    41.467804    41.467804    82.935609 
   26500     1118.036   -24632.186   -25788.182    358.68722    534.90469    -66.68717    607.84415    41.467812    41.467812    82.935625 
   26600    1117.8242   -24632.223   -25787.999    26.656955    38.882093   -155.93074    197.01951    41.468732    41.468732    82.937464 
   26700    1136.5847   -24632.218   -25807.392    -342.6899     77.46971   -197.79115   -907.74826    41.469303    41.469303    82.938607 
   26800    1126.5056   -24632.237    -25796.99   -96.127416    572.62309   -264.55315   -596.45218    41.469144    41.469144    82.938287 
   26900     1120.262   -24632.233    -25790.53     140.6592    443.98261   -816.81596    794.81094    41.468534    41.468534    82.937067 
   27000    1126.1541   -24632.224   -25796.613   -139.87052   -492.20233   -135.74586    208.33662    41.467827    41.467827    82.935654 
   27100    1135.3934   -24632.261   -25806.203   -93.318023    419.02672   -296.88566   -402.09513     41.46671     41.46671     82.93342 
   27200    1123.0593    -24632.36    -25793.55    9.0852118    96.605322    352.67594   -422.02563    41.465487    41.465487    82.930974 
   27300    1120.0604   -24632.447   -25790.535    269.26907    281.46212    342.03839    184.30671     41.46422     41.46422     82.92844 
   27400    1117.5221   -24632.499   -25787.963    262.00509    597.12221      54.0234    134.86966    41.463596    41.463596    82.927193 
   27500    1132.8031   -24632.581   -25803.845   -162.64019    70.494877   -305.21538   -253.20006    41.463383    41.463383    82.926765 
   27600     1126.709   -24632.685   -25797.648    155.78296   -433.86601    773.99373    127.22116    41.463437    41.463437    82.926874 
   27700    1126.1112   -24632.734   -25797.079    192.53535    588.62513   -191.65733    180.63825    41.464681    41.464681    82.929362 
   27800    1128.7233   -24632.802   -25799.847    -63.71509   -420.41437    335.38776   -106.11866    41.466592    41.466592    82.933185 
   27900    1128.1497   -24632.856   -25799.309    22.036854    118.11479    457.57171   -509.57594    41.468644    41.468644    82.937287 
   28000    1106.1031   -24632.946   -25776.604    269.57273    105.01883     603.2737    100.42565    41.470417    41.470417    82.940834 
   28100    1126.3031   -24633.021   -25797.564   -282.00033   -191.62493   -429.28245   -225.09359    41.471302    41.471302    82.942604 
   28200    1128.6164   -24633.067   -25800.002   -223.52246    -294.2182   -781.46615    405.11697    41.471371    41.471371    82.942743 
   28300     1126.498    -24633.12   -25797.864   -244.97143    114.80049    -819.7828   -29.931982    41.470445    41.470445     82.94089 
   28400    1123.2754   -24633.096   -25794.509    -49.94337   -391.56645   -372.60567    614.34201    41.468948    41.468948    82.937896 
   28500    1128.8398    -24633.07   -25800.236   -181.21517   -268.78553    234.26976   -509.12973    41.466971    41.466971    82.933942 
   28600    1122.5684   -24632.996   -25793.678     256.6807     107.3089    394.47883    268.25436    41.464979    41.464979    82.929959 
   28700    1115.1311   -24632.942   -25785.934    350.41574    116.33835    8.3177531    926.59113    41.463693    41.463693    82.927386 
   28800    1116.8625    -24632.88   -25787.662    354.69488    497.44445    118.94063    447.69955    41.463235    41.463235     82.92647 
   28900    1136.4021   -24632.786   -25807.771   -141.33116    537.38469    -288.1319   -673.24628    41.463941    41.463941    82.927881 
   29000    1119.1217   -24632.762    -25789.88    186.45864    474.87062    304.21812   -219.71281    41.464965    41.464965     82.92993 
   29100    1107.5959   -24632.707   -25777.908    531.34259    644.41709    347.60055    602.01012    41.466428    41.466428    82.932856 
   29200    1138.7913   -24632.598   -25810.054   -383.21047   -67.889866   -307.45821   -774.28333    41.468614    41.468614    82.937228 
   29300     1129.758   -24632.546   -25800.661    -286.4407   -409.60152   -268.50207   -181.21851    41.470051    41.470051    82.940101 
   29400     1130.513   -24632.482   -25801.378   -218.79956   -527.55432    53.277064   -182.12142    41.470838    41.470838    82.941676 
   29500    1125.3178   -24632.422   -25795.946   -248.90779   -436.22246   -187.89864   -122.60226    41.470964    41.470964    82.941929 
   29600    1132.7959   -24632.371   -25803.627   -350.80911   -465.42052    55.797881    -642.8047    41.470307    41.470307    82.940614 
   29700    1124.0707   -24632.386   -25794.621    41.148117    232.01757    165.99499   -274.56821    41.468582    41.468582    82.937163 
   29800    1130.1353   -24632.424    -25800.93   -149.56601    112.87973    229.80673   -791.38448     41.46651     41.46651    82.933021 
   29900    1113.9718   -24632.523   -25784.317    300.29933    110.96793    431.53581    358.39424    41.464315    41.464315     82.92863 
   30000    1114.7446   -24632.569   -25785.161    383.90032   -14.667624    950.29019    216.07839    41.462867    41.462867    82.925734 
   30100    1139.0536   -24632.519   -25810.246    -274.5542    -212.5907   -201.92964   -409.14225    41.462762    41.462762    82.925523 
   30200    1134.8085   -24632.477   -25805.814   -57.239504   -626.21198   -208.93995    663.43342    41.463282    41.463282    82.926564 
   30300    1114.7636   -24632.505   -25785.117    299.66887    21.163759    484.23357    393.60929    41.464238    41.464238    82.928476 
   30400    1128.1986   -24632.482   -25798.985   -137.89036    1.8989201   -477.22004     61.65005    41.466006    41.466006    82.932012 
   30500    1115.6503    -24632.48   -25786.009    219.22229    296.09149    815.47793   -453.90256    41.467637    41.467637    82.935273 
   30600    1128.3362   -24632.499   -25799.144   -303.78809   -414.95675   -298.75301   -197.65451    41.469022    41.469022    82.938044 
   30700    1127.5159   -24632.471   -25798.268   -289.92721   -320.87422    350.08693   -898.99434    41.469873    41.469873    82.939745 
   30800    1123.9252   -24632.411   -25794.496   -176.01285    508.57612   -597.88064   -438.73403    41.470012    41.470012    82.940025 
   30900    1122.1772   -24632.342   -25792.619   -112.82489    468.60673   -155.56602   -651.51538    41.469168    41.469168    82.938335 
   31000    1133.9674   -24632.346   -25804.814    -502.4614   -703.82572   -722.71568   -80.842802    41.467214    41.467214    82.934429 
   31100    1121.5944   -24632.357   -25792.031    228.86828    613.00858    28.036612    45.559655    41.464777    41.464777    82.929555 
   31200    1119.2996   -24632.281   -25789.583    246.58274   -98.453874    129.82428    708.37782    41.463611    41.463611    82.927223 
   31300    1123.1153    -24632.17   -25793.418    187.16837   -32.458158    238.37516     355.5881    41.463457    41.463457    82.926913 
   31400    1129.4664   -24632.108   -25799.922    60.054389    281.77065    78.381055   -179.98854    41.463797    41.463797    82.927594 
   31500    1118.5994   -24632.175   -25788.753     266.7241    474.73048    533.16299   -207.72116    41.464476    41.464476    82.928952 
   31600    1122.4326   -24632.141   -25792.682    217.61075   -145.15106    395.19499    402.78831    41.466577    41.466577    82.933155 
   31700    1134.9291   -24632.159   -25805.621   -230.52471    69.507381   -209.97123   -551.11028    41.468743    41.468743    82.937485 
   31800    1131.7206   -24632.267   -25802.412   -131.98112   -76.615232   -36.476608   -282.85152    41.470165    41.470165     82.94033 
   31900    1125.4568   -24632.351    -25796.02   -76.374444   -246.35531    82.754717   -65.522738    41.471199    41.471199    82.942398 
   32000      1127.85   -24632.409   -25798.552   -321.51719   -328.86915   -135.80279   -499.87962    41.471331    41.471331    82.942662 
   32100    1128.4238   -24632.524    -25799.26    -244.5552   -767.85989    138.71542   -104.52113    41.470008    41.470008    82.940017 
   32200    1129.4675    -24632.57   -25800.385   -108.20467    303.83004   -554.52681   -73.917239    41.468272    41.468272    82.936543 
   32300    1124.3086   -24632.494   -25794.975    45.924422   -519.92228   -276.18149    933.87704    41.467325    41.467325    82.934649 
   32400     1128.794   -24632.429   -25799.548   -172.43019    433.29738   -735.05503   -215.53291     41.46658     41.46658     82.93316 
   32500    1120.0104   -24632.413    -25790.45    68.191126    61.311283    406.42059    -263.1585    41.465554    41.465554    82.931109 
   32600    1128.6029   -24632.352   -25799.273    74.413742    443.71504   -370.53823    150.06441    41.464804    41.464804    82.929607 
   32700    1118.4067    -24632.35   -25788.728    159.78921   -177.58438    614.01786     42.93416    41.464438    41.464438    82.928877 
   32800    1126.9905   -24632.323   -25797.577   -52.179694     109.8396   -155.31703   -111.06166    41.464752    41.464752    82.929503 
   32900    1128.0493     -24632.3   -25798.649   -132.93269   -199.66038   -316.99037    117.85269    41.465341    41.465341    82.930682 
   33000    1125.6967   -24632.307   -25796.223   -127.79766    153.97058   -165.83187   -371.53169    41.465903    41.465903    82.931807 
   33100    1118.8554   -24632.306   -25789.148    157.88947    384.01906   -485.57171    575.22107    41.466232    41.466232    82.932463 
   33200    1134.0111   -24632.247    -25804.76   -222.42583    351.12959   -624.80451   -393.60256    41.466958    41.466958    82.933917 
   33300    1131.4294   -24632.188   -25802.032   -226.55957   -313.42404   -41.933335   -324.32132    41.467748    41.467748    82.935497 
   33400     1129.583   -24632.137   -25800.071   -187.40171   -484.58542   -251.37045    173.75075     41.46847     41.46847    82.936941 
   33500    1122.7124   -24632.111   -25792.941   -17.430481    115.86522   -114.92274   -53.233929    41.468736    41.468736    82.937472 
   33600    1123.8751   -24632.066   -25794.099   -107.06088   -69.268876    346.48609   -598.39986    41.468563    41.468563    82.937127 
   33700    1116.8878   -24632.032    -25786.84     259.2121    353.59808    95.356314    328.68191    41.467883    41.467883    82.935766 
   33800    1117.6328   -24631.965   -25787.544    310.71797    478.63534    425.93489    27.583675    41.467578    41.467578    82.935155 
   33900     1122.554   -24631.931   -25792.598    82.324224   -500.26684   -160.72458    907.96409    41.467328    41.467328    82.934655 
   34000     1130.904   -24631.922   -25801.222   -32.830378   -452.11201    133.84013    219.78075    41.466957    41.466957    82.933915 
   34100    1132.3773   -24631.961   -25802.784   -114.50665   -118.30545    268.02492   -493.23943    41.466664    41.466664    82.933329 
   34200    1135.0348   -24632.006   -25805.577   -268.17075   -597.19056   -77.363475   -129.95823     41.46666     41.46666     82.93332 
   34300     1124.366    -24632.08   -25794.621   -55.098965    -214.2861   -564.85054    613.83974    41.466585    41.466585     82.93317 
   34400    1115.3029   -24632.078   -25785.247     329.0282    189.99475    428.08938    369.00048    41.466918    41.466918    82.933837 
   34500    1120.8404    -24632.06   -25790.955    58.956248   -309.78764    64.737815    421.91857    41.467604    41.467604    82.935207 
   34600    1120.9438   -24631.956   -25790.958    96.794228    433.51445   -324.10491    180.97315    41.468595    41.468595    82.937189 
   34700     1111.291   -24631.853   -25780.875    188.90627    414.33151    915.19064   -762.80335    41.469405    41.469405    82.938809 
   34800    1127.5558   -24631.772    -25797.61   -125.26519   -497.87391    495.13387   -373.05553    41.469711    41.469711    82.939423 
   34900    1109.5411    -24631.72   -25778.932    348.77882    294.19484    711.22227    40.919366    41.469355    41.469355    82.938709 
   35000    1122.2765   -24631.603   -25791.983    76.553253   -487.56318    509.14436    208.07858    41.469033    41.469033    82.938067 
   35100    1119.6384   -24631.422   -25789.074   -21.422609   -340.28427    181.72947    94.286971     41.46863     41.46863     82.93726 
   35200    1132.9176   -24631.189   -25802.571    -291.9184    212.48531   -483.12817   -605.11233    41.468101    41.468101    82.936201 
   35300     1120.677   -24630.968   -25789.694    125.90172    1232.1208   -228.54119   -625.87441    41.467346    41.467346    82.934692 
   35400    1130.3218   -24630.711   -25799.409   -156.81287    402.01526    -588.7292   -283.72468    41.467246    41.467246    82.934492 
   35500    1125.3956   -24630.531   -25794.136    109.77792    179.70493    565.46211   -415.83329    41.466951    41.466951    82.933902 
   35600    1129.6388   -24630.349   -25798.341   -214.80545     163.8411   -128.72059   -679.53685    41.467131    41.467131    82.934263 
   35700    1131.4012   -24630.214   -25800.029   -238.84412   -898.56708    417.41155   -235.37682    41.467147    41.467147    82.934294 
   35800    1126.5679   -24630.082   -25794.899    61.897005    249.36787   -219.79421    156.11735    41.467134    41.467134    82.934269 
   35900    1127.4295   -24629.973    -25795.68    5.7061292    333.74291    393.82823   -710.45275     41.46738     41.46738     82.93476 
   36000    1123.0404   -24629.871   -25791.041     228.8587   -423.28885     193.2704    916.59456    41.468034    41.468034    82.936069 
   36100    1130.8601    -24629.72   -25798.975   -94.258183   -260.53129   -127.41537    105.17211    41.469437    41.469437    82.938874 
   36200    1119.8593    -24629.64    -25787.52     64.77161   -279.81502    580.78806   -106.65821     41.47051     41.47051    82.941021 
   36300     1137.814   -24629.521   -25805.966   -443.39205   -157.03531   -755.69328   -417.44756    41.471641    41.471641    82.943282 
   36400    1121.8593   -24629.487   -25789.436    138.94626    145.49874    441.13075   -169.79069    41.471796    41.471796    82.943593 
   36500    1135.7099   -24629.485   -25803.755   -372.28564   -477.10328    -521.6531   -118.10053    41.471522    41.471522    82.943043 
   36600    1123.5666   -24629.546    -25791.26   -65.601269    507.73175   -174.71059   -529.82497    41.470299    41.470299    82.940597 
   36700    1119.4483   -24629.637   -25787.092    198.07578   -158.54305    138.49552    614.27487     41.46863     41.46863    82.937261 
   36800    1141.5295   -24629.784   -25810.071   -333.50927   -201.07296     257.5939   -1057.0488    41.466742    41.466742    82.933484 
   36900    1116.8152   -24630.074   -25784.808    445.60068    564.90691    349.07841    422.81671    41.464268    41.464268    82.928536 
   37000    1136.5514   -24630.271    -25805.41     52.85416    696.33872    -546.8606    9.0843552    41.463267    41.463267    82.926534 
   37100     1123.725   -24630.543   -25792.421    316.62675    701.18544    485.49548   -236.80068    41.462996    41.462996    82.925993 
   37200    1118.6913   -24630.852   -25787.525    454.51187    152.29194    538.69255     672.5511    41.463724    41.463724    82.927447 
   37300    1132.0603   -24631.081   -25801.577    77.771178   -403.94472    651.72558   -14.467327    41.465665    41.465665     82.93133 
   37400    1132.1175   -24631.295    -25801.85   -112.84281    40.305077     29.52151   -408.35501     41.46835     41.46835      82.9367 
   37500    1126.3386   -24631.512   -25796.092   -47.209566    80.745544    362.55451   -584.92875    41.470989    41.470989    82.941977 
   37600    1140.8526   -24631.687   -25811.274   -550.85269   -662.71634   -106.25673   -883.58501    41.473347    41.473347    82.946694 
   37700    1114.8751   -24631.908   -25784.635    67.054886    87.586825   -33.758853    147.33669    41.473778    41.473778    82.947556 
   37800    1124.3149    -24632.02   -25794.507   -372.78856    140.48929   -940.00039   -318.85458    41.473451    41.473451    82.946902 
   37900    1114.7303   -24632.106   -25784.683   -41.244463     -146.824    149.98293   -126.89232    41.471972    41.471972    82.943945 
   38000    1131.5958   -24632.139   -25802.155   -375.13815   -288.46153   -810.37819    -26.57474    41.470102    41.470102    82.940204 
   38100    1127.3266   -24632.187   -25797.789   -51.342417    226.52716    -459.0918    78.537396    41.467382    41.467382    82.934764 
   38200    1122.7522   -24632.254   -25793.125     208.9543    214.28458   -240.76438    653.34271    41.464434    41.464434    82.928867 
   38300    1135.8611   -24632.356   -25806.782   -59.228468     1041.412   -1083.6362   -135.46117    41.462266    41.462266    82.924532 
   38400    1124.2276   -24632.502   -25794.899    329.50296     488.8956    123.69083    375.92245    41.461153    41.461153    82.922306 
   38500    1130.4319   -24632.683   -25801.495    201.19852     474.9062   -175.15475    303.84411    41.461469    41.461469    82.922937 
   38600    1127.1978   -24632.915   -25798.383     232.3216    550.36169   -444.52201    591.12514    41.462983    41.462983    82.925966 
   38700    1130.9188   -24633.157   -25802.473   -155.12326    129.81245    -913.0877    317.90547    41.465469    41.465469    82.930938 
   38800    1121.6577   -24633.378   -25793.118    70.031952    292.10235    58.082224   -140.08872     41.46795     41.46795      82.9359 
   38900    1128.6851   -24633.545   -25800.551   -115.39806   -581.24932    7.8538447    227.20129    41.470412    41.470412    82.940825 
   39000    1128.4542   -24633.657   -25800.425   -340.86977   -750.05828   -331.79211    59.241067    41.472523    41.472523    82.945046 
   39100    1126.1502   -24633.786   -25798.171   -325.18243    162.81387   -684.82502   -453.53612    41.473205    41.473205     82.94641 
   39200    1127.2993   -24633.842   -25799.415   -237.63358   -371.22303    -407.6398    65.962098    41.472842    41.472842    82.945683 
   39300    1134.1072    -24633.79   -25806.402   -472.70626   -274.97994   -530.20364   -612.93522    41.472029    41.472029    82.944057 
   39400    1135.6656   -24633.846    -25808.07   -512.09094   -371.61767    -642.7982   -521.85695     41.46945     41.46945      82.9389 
   39500    1118.8962   -24633.827   -25790.712    71.772914   -31.436312    135.79672    110.95833    41.466416    41.466416    82.932831 
   39600    1121.4423   -24633.718   -25793.235     259.2306    135.42438    842.29914   -200.03171    41.463898    41.463898    82.927795 
   39700    1115.8243   -24633.617   -25787.325    398.87086    150.01774    585.61892    460.97592    41.462073    41.462073    82.924147 
   39800    1128.8879   -24633.473   -25800.689    114.98506    337.84207     46.23824   -39.125123    41.461366    41.461366    82.922733 
   39900    1124.0334   -24633.313    -25795.51    142.48417    9.6261873   -6.1355767     423.9619    41.462052    41.462052    82.924104 
   40000    1127.9049   -24633.056   -25799.255    58.941331    631.93968    171.45619   -626.57188    41.464447    41.464447    82.928894 
   40100     1125.802    -24632.84   -25796.865   -123.92883   -135.92525   -422.48041    186.61919    41.467427    41.467427    82.934855 
   40200    1129.6025   -24632.617   -25800.571   -197.49725    274.58941   -193.48124   -673.59991     41.47042     41.47042     82.94084 
   40300    1134.5915   -24632.389   -25805.502   -388.81173    -37.42532   -1218.2609    89.251024    41.472773    41.472773    82.945546 
   40400    1133.8512   -24632.258   -25804.606   -487.53077   -635.34278    -557.1131   -270.13643    41.473525    41.473525     82.94705 
   40500     1123.695   -24632.162   -25794.008   -89.830765   -332.50357   -687.20711    750.21838    41.472825    41.472825    82.945649 
   40600     1121.113   -24632.032   -25791.209   -55.904539     -132.587   -697.02361    661.89699    41.471358    41.471358    82.942715 
   40700    1122.3016   -24631.876   -25792.282    85.590706    640.11716   -79.859403   -303.48564    41.469429    41.469429    82.938859 
   40800    1126.0032   -24631.727    -25795.96    70.759172   -162.81775    173.36029    201.73498    41.467603    41.467603    82.935205 
   40900    1135.3846   -24631.549   -25805.482    -119.1756    -558.4846   -182.99885    383.95664    41.466403    41.466403    82.932807 
   41000    1120.3097   -24631.469   -25789.816    214.12024   -238.10573    325.06035    555.40609    41.465417    41.465417    82.930834 
   41100     1136.731   -24631.413   -25806.739   -253.45847   -532.49095   -434.16116     206.2767    41.465096    41.465096    82.930192 
   41200    1116.5094   -24631.474   -25785.891    397.70153   -81.038523   -213.91639    1488.0595     41.46454     41.46454     82.92908 
   41300    1128.1153   -24631.495   -25797.912    56.793856   -81.363384    168.97889    82.766059    41.465176    41.465176    82.930352 
   41400    1128.4302   -24631.597   -25798.339   -53.110953   -328.99094    435.35305   -265.69497    41.465912    41.465912    82.931824 
   41500     1123.002   -24631.681   -25792.811    127.84473    132.87352    118.19524    132.46544    41.467027    41.467027    82.934055 
   41600    1114.4473   -24631.734   -25784.019    320.69823    475.43282    103.03057    383.63131    41.468482    41.468482    82.936964 
   41700    1127.1727   -24631.794   -25797.236   -76.417289   -214.88542    534.34303   -548.70948    41.469928    41.469928    82.939856 
   41800    1143.5515   -24631.806   -25814.184   -773.49373   -657.80324   -464.51419   -1198.1637      41.4712      41.4712    82.942399 
   41900    1119.7435   -24631.787   -25789.548   -101.73543    28.000078    123.06348   -456.26984    41.471366    41.471366    82.942731 
   42000    1127.6766   -24631.795   -25797.759   -27.905109    435.17962   -428.91329   -89.981655    41.470318    41.470318    82.940636 
   42100    1126.7164   -24631.819    -25796.79   -122.13143   -579.18424   -18.381257    231.17119    41.468603    41.468603    82.937206 
   42200    1138.2642   -24631.914   -25808.824   -263.88912   -628.78462    234.33518    -397.2179    41.466122    41.466122    82.932243 
   42300    1125.1239   -24632.076     -25795.4    313.57093    25.569713    636.67171    278.47138     41.46339     41.46339    82.926781 
   42400    1117.6589   -24632.261   -25787.867    494.18956    547.17302    189.62482    745.77083    41.461719    41.461719    82.923438 
   42500    1125.4828   -24632.389   -25796.084    374.17755    565.47462   -358.54984    915.60787     41.46188     41.46188    82.923759 
   42600    1140.5881    -24632.51   -25811.824   -193.85463   -28.302791   -518.74639   -34.514713    41.463536    41.463536    82.927072 
   42700    1126.2663   -24632.666   -25797.171   -59.695252    274.27676   -370.80779   -82.554724      41.4654      41.4654    82.930799 
   42800    1131.8514   -24632.871   -25803.151   -170.37705    374.11503   -75.854776   -809.39141    41.466693    41.466693    82.933387 
   42900    1125.5155   -24633.044   -25796.773    144.49923    211.84565    440.58411   -218.93208    41.467595    41.467595    82.935191 
   43000    1113.1487    -24633.15   -25784.092    189.39751     587.6032    580.79445    -600.2051    41.468756    41.468756    82.937511 
   43100    1121.3028    -24633.25   -25792.623  -0.78863899    44.511931   -318.64824     271.7704    41.469322    41.469322    82.938644 
   43200    1126.6899   -24633.321   -25798.264   -90.342753   -116.91887   -566.44797    412.33859    41.469315    41.469315     82.93863 
   43300     1124.242   -24633.402   -25795.814   -49.957226    94.113365    159.66241   -403.64746    41.468837    41.468837    82.937674 
   43400    1137.1501   -24633.477   -25809.236   -409.02158   -586.05119   -236.42527   -404.58828    41.468056    41.468056    82.936111 
   43500      1123.55   -24633.643   -25795.339    35.790561    421.61449   -46.092532   -268.15027    41.466094    41.466094    82.932188 
   43600    1128.1797   -24633.704   -25800.187     3.414176    -183.5354    466.69896   -272.92103    41.464678    41.464678    82.929356 
   43700     1120.866   -24633.714   -25792.635    142.84349    252.91087    242.29094    -66.67134     41.46398     41.46398     82.92796 
   43800    1113.5292   -24633.664   -25784.999    364.37906   -137.31579    158.12124    1072.3317    41.464175    41.464175    82.928349 
   43900    1123.2457   -24633.537   -25794.919    98.320318   -65.036265    30.742192    329.25503    41.465273    41.465273    82.930546 
   44000    1127.1985   -24633.423   -25798.892   -203.12749   -322.99537   -36.403273   -249.98384    41.466938    41.466938    82.933877 
   44100    1123.9394   -24633.294   -25795.394    38.811407   -37.293218   -9.0001378    162.72758    41.468593    41.468593    82.937185 
   44200    1122.0854   -24633.155   -25793.337   -12.728579    61.989234    -132.4031    32.228128    41.470144    41.470144    82.940289 
   44300    1121.7581   -24633.101   -25792.945   -135.44477   -67.005866   -159.70552   -179.62292     41.47052     41.47052    82.941039 
   44400     1117.809    -24633.04   -25788.801    130.02459    140.53984   -21.154378    270.68832    41.469826    41.469826    82.939653 
   44500    1118.6052   -24632.983   -25789.567    129.48995   -69.506527    548.63125   -90.654877    41.468491    41.468491    82.936982 
   44600     1127.757   -24632.917   -25798.963    -49.41045   -46.006383   -1216.1302    1113.9053    41.467037    41.467037    82.934075 
   44700    1131.7923   -24632.876   -25803.095   -52.671798   -242.29304    335.79741   -251.51976    41.465741    41.465741    82.931482 
   44800    1131.4932    -24632.87    -25802.78   -91.583412    40.157714    10.358383   -325.26633    41.464894    41.464894    82.929789 
   44900    1124.4832   -24632.908    -25795.57    50.896746    289.02016    118.23405   -254.56397     41.46429     41.46429     82.92858 
   45000    1118.5795    -24632.89   -25789.447    291.37355     124.7531   -130.55024    879.91781    41.464588    41.464588    82.929176 
   45100     1129.763   -24632.896   -25801.016   -65.189761   -383.63809    526.21649   -338.14768    41.465342    41.465342    82.930683 
   45200     1127.406   -24633.015   -25798.698   -10.124134   -244.47916   -99.771641     313.8784    41.465698    41.465698    82.931395 
   45300    1124.4701   -24633.093   -25795.741    28.041462    302.04766   -213.61472   -4.3085578    41.466298    41.466298    82.932597 
   45400    1127.9361   -24633.152   -25799.384   -199.07523   -583.17559    -132.9809    118.93079    41.466738    41.466738    82.933475 
   45500    1107.6544   -24633.265   -25778.526    534.22222    782.35277    38.715174     781.5987    41.466204    41.466204    82.932407 
   45600    1135.3498    -24633.21   -25807.107   -349.42858   -667.89332   -95.295034   -285.09739    41.466481    41.466481    82.932962 
   45700    1115.2616   -24633.239   -25786.366     142.0973    626.24035   -418.22973    218.28129     41.46585     41.46585    82.931701 
   45800    1114.7534   -24633.241   -25785.842    340.00946    579.35031    25.337469    415.34061    41.465093    41.465093    82.930185 
   45900    1126.3457   -24633.191   -25797.779   -38.293417    114.01928    114.52007   -343.41961    41.464797    41.464797    82.929594 
   46000    1116.8826   -24633.176   -25787.979    268.96357    30.820929    682.85138    93.218397    41.464534    41.464534    82.929069 
   46100    1116.8014    -24633.17   -25787.889    193.26243    370.87604    145.32054    63.590697    41.464487    41.464487    82.928974 
   46200    1129.0532    -24633.09   -25800.477    12.869804   -137.48138    168.56643    7.5243623    41.464901    41.464901    82.929802 
   46300    1127.2046   -24633.088   -25798.563   -56.220584    -786.7176    409.58842    208.46743    41.465228    41.465228    82.930455 
   46400    1123.6073   -24633.079   -25794.835   -6.3210861   -746.48362    507.96412    219.55624    41.465687    41.465687    82.931373 
   46500    1109.7959   -24633.011   -25780.486    224.96194    37.247401    145.33779    492.30065    41.466502    41.466502    82.933004 
   46600    1124.2024   -24632.866   -25795.238   -78.941816   -64.885684   -747.14162    575.20186    41.467504    41.467504    82.935008 
   46700    1127.7835   -24632.751   -25798.825   -145.48657   -531.07799    21.248197    73.370088    41.467992    41.467992    82.935985 
   46800    1124.0566   -24632.635   -25794.856   -52.491537    158.19083    -253.8851   -61.780343    41.467979    41.467979    82.935958 
   46900    1111.7128   -24632.427   -25781.885     203.9025     348.7815    95.136349    167.78966    41.467838    41.467838    82.935676 
   47000    1136.0981   -24632.262   -25806.932   -244.68008   -121.99542    -472.1628   -139.88203    41.467322    41.467322    82.934645 
   47100    1133.8396   -24632.156   -25804.491   -243.97743   -236.18623   -604.23224    108.48617    41.466745    41.466745     82.93349 
   47200    1121.3181   -24632.072   -25791.461    134.42741   -96.543469    171.33491    328.49078     41.46624     41.46624     82.93248 
   47300    1120.1545   -24632.059   -25790.244    258.16115   -622.72881     723.7102    673.50206    41.465465    41.465465     82.93093 
   47400    1127.6837   -24632.067   -25798.038   -28.568246   -296.88416    46.120017    165.05941    41.464876    41.464876    82.929752 
   47500    1113.6817   -24632.095   -25783.588    412.24457    599.38156   -147.69877    785.05092    41.464466    41.464466    82.928932 
   47600     1119.679   -24632.059   -25789.753    197.01825   -64.143559   -41.997372    697.19567    41.465018    41.465018    82.930037 
   47700    1140.8296   -24631.941   -25811.504   -318.49526   -269.60555   -162.70162   -523.17861    41.466377    41.466377    82.932754 
   47800    1109.6439   -24631.906   -25779.225    255.98619    37.846181    176.95932    553.15305    41.467228    41.467228    82.934456 
   47900    1127.5197   -24631.863   -25797.664   -172.13808   -347.52373    -474.0183    305.12779     41.46797     41.46797     82.93594 
   48000    1134.7724   -24631.819   -25805.119   -407.25958   -411.96897   -1107.6903    297.88054    41.468149    41.468149    82.936297 
   48100    1127.5091   -24631.803   -25797.593   -55.427949   -226.01495    113.73397   -54.002872    41.467679    41.467679    82.935357 
   48200    1125.7436   -24631.855    -25795.82   -32.143781   -512.89193   -123.89829    540.35888    41.466504    41.466504    82.933008 
   48300    1139.8154    -24631.97   -25810.484   -248.14094     -682.228    139.23209   -201.42691    41.464871    41.464871    82.929743 
   48400    1125.8909    -24632.07   -25796.187    53.201159   -385.01184    -149.1687    693.78402    41.463657    41.463657    82.927313 
   48500     1134.104   -24632.142   -25804.751    -33.97578   -138.70295   -374.78421    411.55983    41.463607    41.463607    82.927213 
   48600    1124.7117   -24632.219   -25795.116    209.61166   -40.573777     218.3919    451.01684    41.464473    41.464473    82.928946 
   48700    1125.4691   -24632.331   -25796.012    130.98769   -144.34599   -366.84955    904.15862    41.465832    41.465832    82.931664 
   48800    1126.9372   -24632.458   -25797.657   -92.660405    391.30588   -357.32026   -311.96683    41.467508    41.467508    82.935016 
   48900    1128.2038   -24632.559   -25799.067   -165.80964   -983.05441    487.87352   -2.2480152    41.469388    41.469388    82.938775 
   49000    1124.6511   -24632.623   -25795.458   -214.77325   -90.529826   -251.91985   -301.87008    41.471177    41.471177    82.942353 
   49100     1130.402   -24632.668   -25801.449   -310.63755   -219.52913   -547.48582   -164.89769    41.472074    41.472074    82.944148 
   49200    1122.5319   -24632.718   -25793.362   -219.68095   -631.98154    237.05307   -264.11437    41.471789    41.471789    82.943579 
   49300    1127.7373   -24632.762   -25798.788   -128.67494   -67.443999   -562.52547    243.94466    41.470261    41.470261    82.940522 
   49400    1125.3881   -24632.811   -25796.409   -36.552394   -399.45598    555.28474   -265.48594    41.468077    41.468077    82.936155 
   49500    1123.9348   -24632.838   -25794.933    154.90362    198.58463   -310.12258    576.24879    41.465881    41.465881    82.931761 
   49600    1131.0201   -24632.818   -25802.239   -27.110757   -257.03428    80.540151    95.161861    41.464494    41.464494    82.928989 
   49700    1117.5132    -24632.78   -25788.235    467.49002    778.23245     791.6075   -167.36988    41.464106    41.464106    82.928211 
   49800    1137.3425   -24632.763    -25808.72   -293.29975    -584.5887    156.61131   -451.92187    41.464557    41.464557    82.929113 
   49900    1115.7331   -24632.803   -25786.417    399.27345     401.2896    385.09463    411.43611    41.464624    41.464624    82.929248 
   50000    1126.6505   -24632.839   -25797.742   -34.952123    66.184618   -275.87967    104.83868    41.465084    41.465084    82.930168 
Loop time of 1460.3 on 1 procs for 50000 steps with 8000 atoms

Pair  time (%) = 1319.69 (90.3713)
Neigh time (%) = 99.5529 (6.81729)
Comm  time (%) = 8.64571 (0.59205)
Outpt time (%) = 0.624113 (0.0427386)
Other time (%) = 31.7847 (2.17658)

Nlocal:    8000 ave 8000 max 8000 min
Histogram: 1 0 0 0 0 0 0 0 0 0
Nghost:    9076 ave 9076 max 9076 min
Histogram: 1 0 0 0 0 0 0 0 0 0
Neighs:    289274 ave 289274 max 289274 min
Histogram: 1 0 0 0 0 0 0 0 0 0

Total # of neighbors = 289274
Ave neighs/atom = 36.1593
Neighbor list builds = 5000
Dangerous builds = 0
unfix		1

# Melt half the system
region  liquid block INF INF INF INF INF ${nzhalf}
region  liquid block INF INF INF INF INF 10
group	liquid_group region liquid
4008 atoms in group liquid_group

# Heat up one side to Tmelt to make sure it is melted
fix 2 liquid_group npt temp ${Tmelt} ${Tmelt} 1 z 0 0 10 drag 1.0
fix 2 liquid_group npt temp 2000 ${Tmelt} 1 z 0 0 10 drag 1.0
fix 2 liquid_group npt temp 2000 2000 1 z 0 0 10 drag 1.0
run		${eqsteps}
run		50000
Memory usage per processor = 5.95825 Mbytes
Step Temp TotEng PotEng Press Pxx Pyy Pzz Lx Ly Lz 
   50000    1126.6505   -24632.839   -25797.742   -34.952123    66.184618   -275.87967    104.83868    41.465084    41.465084    82.930168 
   50100    1126.6284   -24630.476   -25795.356    59.673756    599.40193   -120.01235   -300.36831    41.465084    41.465084    82.930238 
   50200    1130.9055   -24624.742   -25794.044     104.0998    431.30312   -277.67543     158.6717    41.465084    41.465084    82.930295 
   50300    1130.0273   -24618.705   -25787.099    386.56938    967.45048      -683.21    875.46765    41.465084    41.465084    82.930434 
   50400    1145.0507   -24613.127   -25797.054    219.86645    642.90511   -639.27123    655.96546    41.465084    41.465084    82.930807 
   50500     1142.297   -24607.148   -25788.228    475.10985     1049.155   -91.163817    467.33842    41.465084    41.465084    82.931479 
   50600    1137.9307   -24600.708   -25777.274    748.48766    1026.1089    198.31106     1021.043    41.465084    41.465084    82.932476 
   50700    1142.8126   -24593.913   -25775.526    901.09576    1630.6879    80.237492    992.36186    41.465084    41.465084    82.933951 
   50800     1158.374   -24587.165   -25784.867    678.77684    881.02896    378.69037     776.6112    41.465084    41.465084    82.935931 
   50900      1154.04   -24580.265   -25773.487    862.21729    1101.7624    141.76779    1343.1217    41.465084    41.465084    82.938393 
   51000     1153.239   -24573.351   -25765.745    1143.9547    1132.8666    946.20024    1352.7972    41.465084    41.465084    82.941535 
   51100    1160.9236   -24566.317   -25766.656    1203.3747    1736.2325    285.56583    1588.3257    41.465084    41.465084    82.945373 
   51200    1169.0797   -24559.251   -25768.023    1210.1889    1984.2285    480.28289    1166.0553    41.465084    41.465084    82.950034 
   51300    1160.5083   -24552.133   -25752.043    1659.2424    2417.7093    983.56231    1576.4554    41.465084    41.465084     82.95547 
   51400     1160.314   -24544.976   -25744.685    1809.4009    2345.9325    1054.5987    2027.6716    41.465084    41.465084    82.961685 
   51500    1179.7496   -24537.819   -25757.623    1455.5958    2073.2002    520.95329    1772.6339    41.465084    41.465084    82.968748 
   51600    1165.3132   -24530.575   -25735.453    2006.4712     2793.463    974.18663     2251.764    41.465084    41.465084    82.976632 
   51700    1171.7076   -24523.387   -25734.877    1902.3649    2121.9127    1555.0492    2030.1328    41.465084    41.465084    82.985368 
   51800    1185.6599   -24516.092   -25742.007    1784.2615    1721.2769    654.83834    2976.6693    41.465084    41.465084     82.99497 
   51900    1187.4459   -24508.807   -25736.569    1853.8743    1869.1045    1190.5583    2501.9601    41.465084    41.465084    83.005684 
   52000    1191.4795   -24501.501   -25733.434     1800.579    2671.1008    879.86206     1850.774    41.465084    41.465084    83.017497 
   52100    1180.0697   -24494.157   -25714.293    2254.8894    2776.2851    1457.5213    2530.8616    41.465084    41.465084    83.030225 
   52200    1196.1936   -24486.865   -25723.671    1962.1576    2269.7381    1511.5712    2105.1635    41.465084    41.465084    83.043957 
   52300    1200.7916   -24479.505   -25721.066    2065.0257     1893.831    1622.4738    2678.7723    41.465084    41.465084    83.058688 
   52400    1194.5511   -24472.137   -25707.245    2185.5299    2436.6245    1805.5771    2314.3882    41.465084    41.465084    83.074465 
   52500    1205.4801   -24464.684   -25711.092    2056.3542    2132.0889    1552.2167    2484.7569    41.465084    41.465084    83.091123 
   52600     1198.448   -24457.262     -25696.4    2381.2337    2592.2905    2033.9356     2517.475    41.465084    41.465084    83.108673 
   52700    1200.5447   -24449.812   -25691.117    2480.1855    2807.5191    1338.5382    3294.4993    41.465084    41.465084    83.127156 
   52800    1211.9471   -24442.374   -25695.469    2302.4374    2945.0196    1492.1951    2470.0975    41.465084    41.465084    83.146703 
   52900    1203.2427   -24434.832   -25678.927    2545.9157    2543.5271    2778.8678    2315.3522    41.465084    41.465084     83.16704 
   53000    1217.7241   -24427.305   -25686.373    2185.1342    2789.0602    886.31895    2880.0236    41.465084    41.465084     83.18818 
   53100    1209.1103   -24419.815   -25669.977    2614.4013    3318.5029     1729.711    2794.9899    41.465084    41.465084    83.210212 
   53200      1219.75    -24412.33   -25673.492    2390.4039    2636.5477    1662.2832    2872.3808    41.465084    41.465084    83.233155 
   53300    1220.7455   -24404.795   -25666.987    2267.0634    2735.0693    1794.6981    2271.4228    41.465084    41.465084    83.257057 
   53400     1231.215   -24397.178   -25670.195    2037.5013     2554.864    1173.3988    2384.2411    41.465084    41.465084    83.281713 
   53500    1233.9199   -24389.639   -25665.453    2135.7384    2582.4482    1920.0895    1904.6776    41.465084    41.465084     83.30707 
   53600    1235.5644   -24382.031   -25659.545     2203.613    2540.4227    1946.1724     2124.244    41.465084    41.465084    83.332947 
   53700    1230.7342   -24374.427   -25646.947    2267.5986    2250.8861    1818.1478    2733.7619    41.465084    41.465084    83.359287 
   53800    1230.4662   -24366.884   -25639.127    2322.2148    3016.8671    1705.2072      2244.57    41.465084    41.465084    83.386211 
   53900    1238.4156   -24359.277   -25639.739    2340.2229    2654.2335    1798.0854    2568.3498    41.465084    41.465084     83.41372 
   54000    1243.0894   -24351.646   -25636.941    1921.2034    2472.6665    814.44621    2476.4976    41.465084    41.465084    83.441853 
   54100    1239.6723   -24343.998    -25625.76    2075.4275    2751.9018    1494.9748    1979.4059    41.465084    41.465084    83.470472 
   54200    1242.4325   -24336.323   -25620.939    1863.6045    1904.5697    1810.1918     1876.052    41.465084    41.465084    83.499387 
   54300     1254.471   -24328.654   -25625.716    1760.1258    2002.1801    1340.6492    1937.5481    41.465084    41.465084    83.528604 
   54400    1246.6902   -24320.944   -25609.962    2103.7499    2823.0414      1225.84    2262.3681    41.465084    41.465084    83.558027 
   54500    1261.7812   -24313.188    -25617.81    1645.1979    2745.5329    1306.4858    883.57497    41.465084    41.465084    83.587593 
   54600    1249.8148   -24305.482   -25597.731    1930.7492    2732.4031    1386.1029    1673.7415    41.465084    41.465084    83.616992 
   54700    1253.2003   -24297.734   -25593.482     1941.116    3722.9504    686.42075     1413.977    41.465084    41.465084    83.646321 
[...]
  336300    960.49953   -24382.829   -25375.939    587.23939    861.01087    608.30165    292.40565    40.667731    40.667731     87.78014 
  336400    964.54761   -24382.826   -25380.122    72.555241    692.06288   -264.39171   -210.00544    40.667635    40.667635    87.803296 
  336500    956.70052    -24382.84   -25372.023    659.92043    422.85654    905.24322    651.66152    40.667782    40.667782    87.776523 
  336600    961.98175   -24382.828   -25377.471    480.42457    151.38172    192.02549    1097.8665    40.668167    40.668167    87.759911 
  336700    961.80405    -24382.87   -25377.329    197.77304    424.34901   -360.10899     529.0791     40.66859     40.66859    87.817128 
  336800    957.77538   -24382.851   -25373.145   -314.83522   -359.22088    219.68306   -804.96783    40.668947    40.668947     87.89761 
  336900    956.49872   -24382.852   -25371.826   -60.353489   -326.03183    207.69961   -62.728248    40.669189    40.669189    87.894271 
  337000    957.97573   -24382.878   -25373.379   -141.71573    18.642101     49.09128   -492.88056    40.669339    40.669339    87.842668 
  337100    959.22628   -24382.855   -25374.649    382.31978     105.0115    505.28188    536.66595    40.669464    40.669464    87.795156 
  337200    960.00529   -24382.855   -25375.454     57.40096    154.85683    480.19305   -462.84699    40.669672    40.669672    87.807754 
  337300    970.74779   -24382.856   -25386.562    -204.2814   -543.72667   -491.46621     422.3487    40.669947    40.669947    87.810562 
  337400     965.0999   -24382.884    -25380.75   -261.63768   -873.32903   -347.81752    436.23352    40.670078    40.670078    87.853249 
  337500    965.19137    -24382.87   -25380.831   -741.00003   -1169.1507    42.821897   -1096.6713    40.669982    40.669982    87.918201 
  337600    955.57608   -24382.873   -25370.892   -432.53427   -1166.0918   -442.84897    311.33791    40.669566    40.669566    87.927673 
  337700    960.45326   -24382.871   -25375.933   -428.54159   -1124.9744   -193.87236    33.221995    40.668796    40.668796    87.942147 
  337800    960.71755   -24382.877   -25376.212   -706.28382    -472.7615   -1051.3407   -594.74927    40.667875    40.667875    87.939891 
  337900    956.96337   -24382.879   -25372.333   -239.89989   -766.88877   -734.28212    781.47123    40.666788    40.666788    87.918428 
  338000    951.76796   -24382.877   -25366.959   -9.2643306   -149.44424    195.69445   -74.043203    40.665585    40.665585    87.921985 
  338100     958.3961    -24382.88   -25373.815   -288.14142     28.95402   -817.57594   -75.802339    40.664439    40.664439    87.913773 
  338200    953.64719   -24382.888   -25368.913   -82.120285    153.19088   -1518.7593    1119.2076    40.663184    40.663184    87.897613 
  338300    962.37521   -24382.898   -25377.948   -377.18132   -550.14102    -95.36702   -486.03591    40.661824    40.661824    87.922613 
  338400    957.41266   -24382.893   -25372.812   -156.97443   -362.26442   -264.17787      155.519    40.660472    40.660472     87.93636 
  338500    954.89024   -24382.894   -25370.204   -301.25537   -424.44096   -507.38707     28.06192    40.659157    40.659157    87.941437 
  338600    956.34698   -24382.895   -25371.712   -232.51045   -645.62645    88.251156   -140.15606    40.657808    40.657808     87.93692 
  338700    945.08329   -24382.902   -25360.073    139.64875    370.75831   -839.15623    887.34416    40.656499    40.656499    87.936918 
  338800    960.82084   -24382.906   -25376.348   -321.94003    182.60079   -291.50972   -856.91117    40.655194    40.655194    87.964578 
  338900    958.34604   -24382.919   -25373.803    186.15094    258.08851    229.70556    70.658733    40.653979    40.653979    87.924876 
  339000    956.54303   -24382.918   -25371.937    543.04785    1396.6869     202.0504     30.40629    40.652933    40.652933    87.878298 
  339100    958.31295   -24382.908   -25373.757    649.53727    38.112772    990.14258    920.35647    40.652257    40.652257    87.845056 
  339200    970.15411   -24383.012   -25386.105   -262.25823      -1761.6    -240.6971    1215.5225    40.651845    40.651845    87.903172 
  339300    968.95622   -24383.005   -25384.859   -1188.2437   -1928.8125   -159.75929   -1476.1592    40.651225    40.651225    88.047313 
  339400    950.52454   -24382.959   -25365.756    -674.5815   -2056.1841    676.57317   -644.13357    40.650315    40.650315    88.092713 
  339500    969.42197   -24383.063   -25385.399   -904.94453   -939.64455   -819.57962    -955.6094    40.649225    40.649225    88.032254 
  339600     960.8592   -24383.057   -25376.539    98.515192   -143.56999   -33.389337     472.5049    40.648008    40.648008    87.906423 
  339700    961.33988   -24383.013   -25376.992    659.17413    461.40752   -216.04989    1732.1647    40.646913    40.646913    87.844903 
  339800    964.61732   -24383.048   -25380.416    191.93446   -67.236792    1159.7106   -516.67038      40.6461      40.6461    87.897201 
  339900    961.54465   -24383.032   -25377.223   -123.24023    339.53185   -646.85359   -62.398936    40.645632    40.645632    87.948646 
  340000    963.12913   -24383.027   -25378.856     -174.773    -218.0901    11.469684    -317.6986    40.645266    40.645266    87.960516 
  340100     951.5701   -24383.027   -25366.904    414.77672   -168.17969    1482.2805   -69.770608    40.644902    40.644902    87.946539 
  340200    964.23291   -24383.026   -25379.997    111.49992   -405.74537    1169.4511     -429.206    40.644697    40.644697    87.930197 
  340300    961.40342   -24383.049   -25377.094    353.37355    1195.2271     183.4264   -318.53286    40.644727    40.644727    87.882481 
  340400    955.18405   -24383.037   -25370.651    806.75318    1420.0261    -120.9467    1121.1801     40.64509     40.64509    87.823646 
  340500    974.57692   -24383.081   -25390.746    370.14466    219.11242   -60.451294    951.77284    40.645725    40.645725    87.849347 
  340600    962.25871   -24383.176   -25378.105   -282.70981   -450.39696   -600.61477    202.88229    40.646403    40.646403    87.971114 
  340700    957.52678   -24383.124   -25373.161   -900.96825   -1599.3429    -700.9515   -402.61037    40.646789    40.646789    88.083794 
  340800     960.3301   -24383.096   -25376.031   -1254.7611   -2533.9828   -701.00147   -529.29892    40.646614    40.646614    88.123084 
  340900    958.41118   -24383.106   -25374.057   -1058.5371   -1685.4651   -1270.5218   -219.62434    40.645843    40.645843    88.104934 
  341000    960.93399   -24383.152   -25376.711   -825.86879    -1488.165   -346.11044   -643.33096    40.644577    40.644577    88.043027 
  341100    971.39758     -24383.2   -25387.579   -315.80112   -859.73942    110.34038   -198.00432    40.643086    40.643086    87.935549 
  341200    959.22835    -24383.16   -25374.956    989.99903    412.72849    1028.9785    1528.2901    40.641731    40.641731    87.845677 
  341300    963.74294   -24383.175   -25379.639    541.77953    852.80205   -162.33618    934.87271    40.640808    40.640808    87.861586 
  341400    963.59973    -24383.23   -25379.546    122.68899    -222.1324    86.205778    503.99358    40.640077    40.640077    87.951096 
  341500    959.35725   -24383.196   -25375.125   -454.74062   -867.82828   0.33374146   -496.72733    40.639334    40.639334    88.035145 
  341600      949.734   -24383.186   -25365.165   -373.39647    321.43709   -1162.4113   -279.21517    40.638477    40.638477    88.047366 
  341700    955.26923    -24383.22   -25370.922   -184.58452    273.18587   -795.09443      -31.845    40.637562    40.637562    87.999698 
  341800    962.30444   -24383.227   -25378.203    202.21721    1175.5183   -623.31888    54.452197    40.636677    40.636677    87.929633 
  341900    964.60152   -24383.205   -25380.557    668.65348    651.47014    724.81658    629.67371    40.636002    40.636002    87.885893 
  342000    963.15544   -24383.205   -25379.061     479.1744    1365.9113   -17.807412    89.419286    40.635666    40.635666    87.902185 
  342100    959.97836   -24383.202   -25375.774     288.2624    262.24756    120.87649    481.66315    40.635659    40.635659    87.923275 
  342200     958.9533   -24383.205   -25374.717    484.61788     391.7503    744.84728    317.25606    40.635796    40.635796    87.944172 
  342300     973.4361   -24383.211   -25389.697   -372.85288   -712.14281    280.89691   -687.31273    40.636035    40.636035    87.978943 
  342400    972.71756   -24383.211   -25388.954   -119.26423    172.11505    192.28786   -722.19559    40.636187    40.636187     87.98311 
  342500     955.6082    -24383.21   -25371.263    270.43474    -16.42423   -33.942911    861.67136    40.636303    40.636303    87.958008 
  342600    962.88404    -24383.21   -25378.786   -87.324015   -1259.1502    681.51829    315.65987    40.636375    40.636375    87.970704 
  342700    968.76906   -24383.212   -25384.873   -115.88653   -868.10071    258.93737    261.50375    40.636364    40.636364    87.983393 
  342800    960.52234   -24383.216    -25376.35    -64.89062    298.87323   -274.41302   -219.13207    40.636291    40.636291     87.99934 
  342900    965.06036   -24383.225   -25381.051   -286.45666   -662.14892    103.21243   -300.43347    40.636238    40.636238    87.984746 
  343000     958.2138   -24383.209   -25373.956    152.87165    36.073412    255.65742    166.88413    40.636093    40.636093    87.956155 
  343100    963.43112   -24383.216   -25379.358    268.68934    13.730032    663.82626    128.51171    40.635955    40.635955    87.942306 
  343200    974.41644   -24383.218   -25390.718    115.73548   -637.48034    688.68519    296.00158    40.635941    40.635941    87.926345 
  343300    952.20064   -24383.228   -25367.758    485.19077    843.47796    47.124359       564.97    40.635942    40.635942    87.941896 
  343400    955.53387   -24383.219   -25371.195   -30.076779    314.04511   -466.95236    62.676916    40.636012    40.636012    87.993886 
  343500    966.11838   -24383.224   -25382.144    -374.9392   -474.00894   -41.611074   -609.19758    40.636062    40.636062      88.0094 
  343600    958.32784   -24383.218   -25374.082   -72.964599   -72.501429    35.607464   -181.99983    40.636006    40.636006    87.988863 
  343700    962.23105   -24383.233   -25378.133    50.259022    761.01339    649.16681   -1259.4031    40.635893    40.635893    87.961388 
  343800    965.61445   -24383.228   -25381.627    195.46271   -270.34569    419.18984    437.54399    40.635977    40.635977    87.909492 
  343900     964.8487   -24383.228   -25380.835    472.30635     1065.746   -12.203941    363.37697      40.6361      40.6361    87.898528 
  344000    959.51118   -24383.236   -25375.324    582.31308    1174.9374   -161.62576    733.62758    40.636387    40.636387    87.919368 
  344100    964.46598   -24383.245   -25380.456   -86.579088    83.222639    138.42352   -481.38342    40.636771    40.636771    87.969377 
  344200    969.85469   -24383.242   -25386.025   -255.92328   -917.12924   -371.11957    520.47898    40.637196    40.637196    87.991889 
  344300    970.38282   -24383.258   -25386.587   -563.48973   -1057.9318     -553.388   -79.149403    40.637479    40.637479    88.042546 
  344400    958.43002   -24383.251   -25374.221   -861.44107   -409.03269    -1284.341   -890.94948    40.637456    40.637456     88.10039 
  344500    965.14385    -24383.28   -25381.192   -959.10591   -749.87763   -1313.7565   -813.68365    40.637092    40.637092    88.080518 
  344600    963.51177   -24383.311   -25379.535    -219.9483   -247.14304   -54.676578   -358.02527    40.636492    40.636492    87.990592 
  344700    960.95186   -24383.272    -25376.85    299.96193    1118.2343   -542.03509    323.68663    40.635958    40.635958    87.920219 
  344800    954.69166   -24383.272   -25370.377    761.50522    1176.6722    695.71998    412.12354    40.635602    40.635602    87.919812 
  344900    965.68245   -24383.273   -25381.742    95.439883    697.35493   -587.26376    176.22848    40.635499    40.635499     87.95624 
  345000    960.66663   -24383.284   -25376.567   -55.327495   -735.96424    206.00804    363.97371    40.635408    40.635408    87.996993 
  345100    962.93875   -24383.277    -25378.91   -486.99002   -709.04404   -282.96161   -468.96442    40.635179    40.635179    88.050725 
  345200     961.6625   -24383.272   -25377.585   -568.16559    -497.2421   -394.01366   -813.24102     40.63482     40.63482    88.069042 
  345300    961.91907   -24383.296   -25377.874   -334.28489    -936.3362   -15.080418   -51.438053    40.634331    40.634331    88.037107 
  345400    956.22736   -24383.287    -25371.98    90.895486   -19.825477    780.31229   -487.80035     40.63373     40.63373    88.012463 
  345500    967.71298     -24383.3   -25383.869    17.464098    24.028699    512.45901   -484.09541    40.633296    40.633296    87.970478 
  345600    960.02234   -24383.297   -25375.914    434.31238    1.0628116    347.11327    954.76105    40.633067    40.633067    87.922444 
  345700    959.35907   -24383.295   -25375.226    283.02504   -316.60733    1159.7276    5.9548372    40.633062    40.633062    87.943694 
  345800    966.86351   -24383.295   -25382.986    143.45351    180.73981    434.50462    -184.8839    40.633273    40.633273    87.971718 
  345900     967.3127   -24383.293   -25383.448   -221.18898   -779.94596    269.17935   -152.80033    40.633656    40.633656    87.987821 
  346000    950.29706   -24383.287   -25365.848    307.46646   -33.011862    954.61358   0.79766679    40.634046    40.634046    87.981813 
  346100    952.14923   -24383.291   -25367.768    233.39543    335.86828    459.64191   -95.323899    40.634477    40.634477    87.970133 
  346200    951.37217   -24383.291   -25366.964    500.06268    319.67192    639.30068    541.21543    40.634992    40.634992    87.957568 
  346300    958.27885   -24383.294   -25374.108    332.69484    458.86294    347.04936    192.17223    40.635571    40.635571    87.955219 
  346400     964.6388   -24383.297   -25380.687    116.48371    22.995787    354.59417   -28.138834    40.636197    40.636197    87.955771 
  346500    972.52922   -24383.304   -25388.853   -49.564831    -1025.045    577.80328    298.54723    40.636818    40.636818    87.939902 
  346600    966.59267   -24383.307   -25382.717   -110.41798    -51.57984   -283.13405    3.4599503    40.637358    40.637358    87.949889 
  346700    965.07651   -24383.315   -25381.158   -280.34887    -620.5869   -174.70756   -45.752133     40.63779     40.63779    88.000117 
  346800    964.46976   -24383.298   -25380.513   -405.83253   -1520.0606    212.03029    90.532761    40.638058    40.638058    88.021613 
  346900     964.7949   -24383.307   -25380.858   -379.87748   -1108.4266    288.54947   -319.75535    40.638077    40.638077    88.010324 
  347000    956.66627   -24383.306   -25372.453    224.95314   -38.333568    1046.6758   -333.48278    40.637947    40.637947     87.98589 
  347100    971.96034   -24383.315   -25388.275    18.029069    95.021452    55.155653   -96.089896    40.637921    40.637921    87.951337 
  347200    969.20879   -24383.315    -25385.43    59.454152    422.79403   -36.139242   -208.29233    40.637972    40.637972    87.920901 
  347300    963.70194   -24383.319    -25379.74    476.15122    792.74604    200.71733    434.99029    40.638185    40.638185    87.882261 
  347400    952.66069   -24383.315    -25368.32    850.40029    926.35457     905.3026     719.5437    40.638545    40.638545    87.879464 
  347500    962.35873   -24383.332   -25378.364     307.8628   -441.56178    979.23977     385.9104    40.639058    40.639058    87.930236 
  347600    961.88316   -24383.328   -25377.869   -216.72441    -927.4535    506.76469   -229.48444    40.639543    40.639543    87.986084 
  347700    958.84489   -24383.326   -25374.726   -273.27764   -597.19404   -94.746204   -127.89267    40.639873    40.639873    88.012834 
  347800    957.73487    -24383.32   -25373.571   -344.92122   -251.12693    60.111535   -843.74826    40.640061    40.640061    88.017981 
  347900    960.95119   -24383.403    -25376.98   -57.655451    33.977551    475.67956   -682.62347    40.640191    40.640191    87.938718 
  348000    965.53253   -24383.466    -25381.78    1235.6973    2337.2425    1715.0514   -345.20208    40.640523    40.640523    87.802173 
  348100    973.23335   -24383.434    -25389.71    1666.3575    2339.5676    1637.2414    1022.2636    40.641619    40.641619    87.682052 
  348200    975.84149   -24383.424   -25392.397    1611.9498    1873.3702    1997.4024    965.07684    40.643394    40.643394    87.666188 
  348300    957.78915   -24383.502    -25373.81    1504.5977    1030.4936     2801.883    681.41663      40.6457      40.6457     87.74048 
  348400    962.81097    -24383.56    -25379.06    410.41385   -48.556878    842.43671    437.36171    40.648283    40.648283    87.854565 
  348500    954.71505   -24383.609   -25370.738   -321.19397    -1075.862    266.59917   -154.31908    40.650524    40.650524     87.98755 
  348600    960.84781   -24383.536   -25377.007   -1473.0946   -2193.4367   -416.90303   -1808.9441    40.652059    40.652059    88.092936 
  348700    959.54593   -24383.629   -25375.754   -977.87819   -744.34627   -1092.5388   -1096.7495     40.65277     40.65277    88.039865 
  348800    948.80752   -24383.661   -25364.682     439.0592    860.04253    281.93292    175.20215     40.65298     40.65298    87.907495 
  348900    967.28958    -24383.61   -25383.741    427.05044    84.757258    86.410439    1109.9836    40.653228    40.653228     87.81308 
  349000    963.48864   -24383.602   -25379.803    570.60959    402.93461    559.91576     748.9784    40.653585    40.653585    87.805523 
  349100    949.80711   -24383.601   -25365.656    636.88336    1187.9304    615.07563    107.64407    40.654098    40.654098    87.834404 
  349200    968.50877   -24383.611   -25385.002    230.32562    460.16198    312.64851   -81.833635    40.654761    40.654761    87.863359 
  349300    966.38584   -24383.634   -25382.831   -272.45915    91.524885   -355.34228   -553.56004     40.65538     40.65538    87.916772 
  349400    966.75755   -24383.616   -25383.197   -459.87961   -38.336276   -588.87003   -752.43252    40.655776    40.655776    87.953005 
  349500     965.2735   -24383.618   -25381.665   -355.28178   -518.78365   -736.93511    189.87341    40.656029    40.656029    87.949316 
  349600    953.84324   -24383.613   -25369.841   -49.021584    327.27729   -113.37705   -360.96499    40.656027    40.656027    87.960729 
  349700    969.37208   -24383.627   -25385.911   -499.25205    -1306.269   -142.50528   -48.981839    40.655896    40.655896    87.937197 
  349800    968.45261   -24383.623   -25384.956   -112.39715    435.27599   -148.98598   -623.48145    40.655574    40.655574    87.914988 
  349900     963.8111    -24383.62   -25380.154    97.479901   -317.65685   -594.01262    1204.1092    40.655245    40.655245    87.878735 
  350000    967.03275   -24383.625    -25383.49     12.45442   -252.95537     376.0113   -85.692678    40.654867    40.654867    87.896388 
Loop time of 5651.96 on 1 procs for 200000 steps with 8000 atoms

Pair  time (%) = 5099.74 (90.2295)
Neigh time (%) = 396.685 (7.01853)
Comm  time (%) = 32.6566 (0.577792)
Outpt time (%) = 2.59394 (0.0458945)
Other time (%) = 120.287 (2.12824)

Nlocal:    8000 ave 8000 max 8000 min
Histogram: 1 0 0 0 0 0 0 0 0 0
Nghost:    8445 ave 8445 max 8445 min
Histogram: 1 0 0 0 0 0 0 0 0 0
Neighs:    278161 ave 278161 max 278161 min
Histogram: 1 0 0 0 0 0 0 0 0 0

Total # of neighbors = 278161
Ave neighs/atom = 34.7701
Neighbor list builds = 20000
Dangerous builds = 0
unfix		4
