LAMMPS (13 Jan 2014)
dimension       3
boundary        p p p
units           metal

atom_style	atomic
neighbor	0.3 bin
neigh_modify	every 10 delay 0 check no

# Number of steps for the equilibration steps
variable        eqsteps equal 50000

# Number of steps to run our NPH simulation
variable        simsteps equal 200000

# Our trial melting temperature
variable	T equal 800.0
variable	T2 equal 2*${T}
variable	T2 equal 2*800

# Some high temperature to melt the crystal
variable	Tmelt equal 2000.0

#System size
variable	nx equal 10
variable	ny equal 10
variable	nz equal 20
variable	nzhalf equal ${nz}*0.5
variable	nzhalf equal 20*0.5
variable	a equal 4.050
variable	length equal ${nz}*${a}
variable	length equal 20*${a}
variable	length equal 20*4.05

lattice		fcc ${a}
lattice		fcc 4.05
Lattice spacing in x,y,z = 4.05 4.05 4.05

region         box block 0 ${nx} 0 ${ny} 0 ${nz}
region         box block 0 10 0 ${ny} 0 ${nz}
region         box block 0 10 0 10 0 ${nz}
region         box block 0 10 0 10 0 20
create_box     1 box
Created orthogonal box = (0 0 0) to (40.5 40.5 81)
  1 by 1 by 1 MPI processor grid
create_atoms   1 box
Created 8000 atoms

mass		1 26.9815

pair_style	eam/alloy
pair_coeff	* * Al_potential.alloy Al

velocity	all create ${T2} 1337
velocity	all create 1600 1337

# Create a dump file. This can be visualized with
# e.g. OVITO (http://www.ovito.org/)
dump		id all atom 1000 atomsdump

# 1 fs timestep
timestep	0.001
thermo_style	custom step temp etotal pe press pxx pyy pzz lx ly lz

# output every 100th timestep
thermo		100

# Equilibration the whole system to the trial melting temperature
fix		1 all npt temp ${T} ${T} 1 iso 0 0 3 drag 1.0
fix		1 all npt temp 800 ${T} 1 iso 0 0 3 drag 1.0
fix		1 all npt temp 800 800 1 iso 0 0 3 drag 1.0
run		${eqsteps}
run		50000
Memory usage per processor = 5.95314 Mbytes
Step Temp TotEng PotEng Press Pxx Pyy Pzz Lx Ly Lz 
       0         1600   -25522.929   -27177.252    9236.0385     9115.175    9102.6725     9490.268         40.5         40.5           81 
     100    776.38433   -25538.824   -26341.568    24108.016    24369.308     24095.93    23858.811    40.587458    40.587458    81.174916 
     200    748.84014   -25560.798   -26335.063    13305.415    13803.569    13266.807    12845.868    40.791726    40.791726    81.583452 
     300    759.47179   -25568.732    -26353.99    4368.7535    4304.3054    4255.7664    4546.1888    40.954817    40.954817    81.909634 
     400    746.78965   -25568.343   -26340.487   -337.55856    -714.0428    212.59165   -511.22454    41.055844    41.055844    82.111687 
     500    736.30479   -25565.372   -26326.676   -2962.0289   -2839.8088   -2763.7254   -3282.5524    41.115484    41.115484    82.230968 
     600    736.46644   -25561.966   -26323.437   -4028.3851   -3925.9022   -4078.7268   -4080.5264    41.139531    41.139531    82.279062 
     700    732.34758   -25559.009   -26316.221   -3519.2635   -3394.5412   -3686.6326   -3476.6166    41.133041    41.133041    82.266081 
     800    750.90861   -25556.385   -26332.788   -2481.2028   -2402.3803    -2734.706   -2306.5223    41.105552    41.105552    82.211104 
     900    746.79344   -25553.808   -26325.957   -511.37255   -563.36747   -541.67723   -429.07293    41.068977    41.068977    82.137954 
    1000    757.38049   -25551.081   -26334.176    895.41825    1080.2572    905.73165    700.26588    41.036562    41.036562    82.073124 
    1100    764.59096    -25548.37    -26338.92    1800.8354    1631.0717    1912.3589    1859.0757    41.017395    41.017395    82.034791 
    1200    759.93032   -25545.944   -26331.676    2083.5034     2094.853    2549.3689    1606.2883    41.014535    41.014535    82.029071 
    1300    746.30943   -25543.816   -26315.464    1934.9255      1769.81    2145.9065    1889.0601    41.025588    41.025588    82.051175 
    1400    757.44992   -25541.691   -26324.858    799.32602    1215.3307    556.60209    626.04526    41.045934    41.045934    82.091867 
    1500    762.20589   -25539.424   -26327.508    -452.1489   -377.96977   -401.26818   -577.20876    41.068204    41.068204    82.136408 
    1600    751.92708   -25536.964   -26314.421   -796.40806   -786.03616   -662.59028   -940.59773    41.085827    41.085827    82.171654 
    1700    755.92516   -25534.482   -26316.072   -1328.9779   -1375.2598   -1235.4818    -1376.192    41.094513    41.094513    82.189026 
    1800    753.83917   -25532.045   -26311.479   -1144.4028   -1462.4286   -531.88814   -1438.8916    41.093444    41.093444    82.186887 
    1900    759.63859   -25529.664   -26315.094   -859.03953   -950.79034   -995.90843   -630.41984    41.084725    41.084725     82.16945 
    2000    749.00209   -25527.312   -26301.744    170.32147    318.77365   -363.12312     555.3139    41.072108    41.072108    82.144217 
    2100    766.22935   -25524.962   -26317.206     358.7435     83.61141    458.87273    533.74637    41.060478    41.060478    82.120956 
    2200    761.99875   -25522.669   -26310.539    879.26984    873.44095    580.30907    1184.0595    41.053113    41.053113    82.106226 
    2300    758.61653   -25520.463   -26304.836    1087.8964    1385.0145    460.48968    1418.1851     41.05199     41.05199     82.10398 
    2400    766.50463   -25518.338   -26310.867     730.3935    1054.3845    704.45988     432.3361    41.057264    41.057264    82.114528 
    2500    770.19014   -25516.281   -26312.621     198.8797    85.807726   -85.739832     596.5712     41.06666     41.06666    82.133321 
    2600    773.34038   -25514.217   -26313.814   -288.22519   -296.43394   -473.32926    -94.91236     41.07723     41.07723    82.154459 
    2700    759.23484   -25512.147   -26297.159   -300.44007   -401.85801   -286.12211    -213.3401    41.085728    41.085728    82.171455 
    2800    772.67698   -25510.099    -26309.01   -773.78114   -382.96967   -1140.0786   -798.29517     41.08999     41.08999     82.17998 
    2900    767.81973   -25508.081    -26301.97   -589.32433   -680.75014    -503.9562   -583.26664     41.08937     41.08937     82.17874 
    3000    764.99456   -25506.049   -26297.017   -288.47329   -122.66816    -248.9256   -493.82611    41.085398    41.085398    82.170796 
    3100    774.67101   -25504.023   -26304.995   -177.86431   -199.81724   -122.67093   -211.10477    41.079643    41.079643    82.159285 
    3200    776.12289   -25502.051   -26304.525    159.78587    578.56265    10.934987   -110.14002    41.073966    41.073966    82.147932 
    3300    767.41229   -25500.148   -26293.616     572.7047    712.78525    394.83961    610.48923    41.070539    41.070539    82.141079 
    3400    775.48116   -25498.275   -26300.085    470.24994    521.36119    298.20719    591.18143    41.070724    41.070724    82.141448 
    3500    772.73138   -25496.505   -26295.472    456.39392    11.653984    409.85689    947.67088    41.073863    41.073863    82.147725 
    3600     781.7944   -25494.722   -26303.059    -47.14338   -171.33118    223.67028   -193.76924    41.079562    41.079562    82.159124 
    3700    773.92025   -25492.992   -26293.188   -139.94856   -273.59282    42.025869   -188.27873     41.08548     41.08548     82.17096 
    3800    781.47759   -25491.266   -26299.276   -374.25562   -145.31837   -349.45124   -627.99726    41.090195    41.090195     82.18039 
    3900    771.72441   -25489.592   -26287.517   -188.18309   -312.74278    160.14259   -411.94909    41.092554    41.092554    82.185108 
    4000    781.56344   -25487.864   -26295.963   -424.02607   -584.26648    -411.9639   -275.84782    41.093117    41.093117    82.186234 
    4100    781.76074   -25486.178   -26294.481   -257.06399   -289.07813   -541.37669    59.262845    41.091262    41.091262    82.182525 
    4200    783.52579   -25484.532    -26294.66   -137.20515   -371.72743    89.324542   -129.21256    41.088128    41.088128    82.176256 
    4300    781.15493   -25482.937   -26290.614    86.769739    14.750087   -86.768563    332.32769    41.084899    41.084899    82.169799 
    4400    792.33324    -25481.39   -26300.624   -52.399446    122.97982    202.50815   -482.68631    41.082884    41.082884    82.165768 
    4500    777.96627   -25479.893   -26284.273    344.76889   -136.55885     460.7636    710.10191    41.082565    41.082565    82.165129 
    4600    777.50924   -25478.432   -26282.339    425.91334    380.61195    157.45705    739.67101    41.084367    41.084367    82.168735 
    4700    782.31342   -25476.968   -26285.842    37.524395   -385.47478    162.88835    335.15962    41.088257    41.088257    82.176514 
    4800    779.87875   -25475.521   -26281.879    -65.04992   -342.20353    406.72861   -259.67484    41.092391    41.092391    82.184781 
    4900    781.13729   -25474.087   -26281.745   -116.47812   -413.57874    11.611044    52.533327    41.095778    41.095778    82.191556 
    5000    781.10183   -25472.685   -26280.306   -208.33207    -297.1935   -141.38533   -186.41738    41.097547    41.097547    82.195095 
    5100    779.06724   -25471.332    -26276.85   -85.356228    23.438798   -75.756437   -203.75104    41.097104    41.097104    82.194209 
    5200     790.6033   -25469.985   -26287.431   -228.41774    -229.5988   -215.88909   -239.76534    41.095266    41.095266    82.190531 
    5300    777.70903   -25468.649   -26272.763     267.9733   -16.402689     208.3916    611.93099    41.092866    41.092866    82.185731 
    5400    796.33248   -25467.356   -26290.725   -88.378237   -88.259771   -530.74803    353.87309    41.091082    41.091082    82.182163 
    5500    787.88554   -25466.137   -26280.773    152.25345   -163.01549    351.59179    268.18406    41.090311    41.090311    82.180623 
    5600    799.82733   -25464.941   -26291.924   -93.741391   -9.5016401   -134.27562   -137.44692    41.091098    41.091098    82.182197 
    5700    787.60974   -25463.831   -26278.181    208.33979    -423.3999    597.75463    450.66463    41.093015    41.093015     82.18603 
    5800    785.03759   -25462.686   -26274.377    101.57163   -208.80795    239.46707    274.05578    41.096374    41.096374    82.192749 
    5900     796.0612    -25461.58   -26284.669   -333.01258   -194.71202   -266.97775   -537.34797    41.099574    41.099574    82.199149 
    6000    788.18291   -25460.543   -26275.486   -187.59358   -65.045937   -331.99112   -165.74368    41.101499    41.101499    82.202998 
    6100    792.47281   -25459.492   -26278.871   -249.39279   -204.85163   -51.426448    -491.9003    41.102248    41.102248    82.204496 
    6200    792.62301   -25458.438   -26277.972   -296.00578    39.662594    -149.1132   -778.56673    41.101499    41.101499    82.202998 
    6300    788.71082   -25457.419   -26272.908   0.45338822   -61.384622   -21.749069    84.493856    41.099304    41.099304    82.198608 
    6400    796.63326   -25456.419   -26280.099   -58.905845     72.13165    93.226192   -342.07538    41.096985    41.096985    82.193971 
    6500    790.84879   -25455.466   -26273.166    214.01414    558.23972    -199.5322     283.3349    41.095066    41.095066    82.190132 
    6600     786.5459   -25454.532   -26267.783    373.37042    592.79002     343.0082    184.31304    41.094639    41.094639    82.189278 
    6700     789.4501   -25453.607    -26269.86    246.84052    450.93548    48.161873     241.4242    41.095896    41.095896    82.191791 
    6800    793.98606   -25452.673   -26273.616    129.96902   -151.48377    55.795005    485.59584    41.098477    41.098477    82.196955 
    6900    799.66261   -25451.791   -26278.604   -304.68386   -420.04777   -356.63044   -137.37339    41.101359    41.101359    82.202718 
    7000    794.05994   -25450.915   -26271.935   -95.347553    -406.0868   -68.042053     188.0862    41.103908    41.103908    82.207816 
    7100    784.86476    -25450.07   -26261.582    5.2589032   -369.15777    165.69424    219.24024    41.105507    41.105507    82.211013 
    7200    791.60021   -25449.234    -26267.71   -138.97812    -264.0815    27.620477   -180.47335    41.105961    41.105961    82.211921 
    7300    793.79276   -25448.406    -26269.15   -91.223386   -419.34625   -22.960321    168.63641    41.105273    41.105273    82.210546 
    7400    793.32842   -25447.631   -26267.894   -1.3388949    699.38221   -709.92221    6.5233167    41.103707    41.103707    82.207414 
    7500    801.83395   -25446.865   -26275.922   -15.711806     219.8998   -188.09451    -78.94071    41.102222    41.102222    82.204444 
    7600    799.29933   -25446.154   -26272.591   -62.293523   -100.31846   0.20033332   -86.762436    41.101224    41.101224    82.202448 
    7700     792.2616   -25445.463   -26264.623    132.31804    262.81382    39.185338     94.95496    41.100704    41.100704    82.201407 
    7800    800.82152   -25444.775   -26272.786     7.553935    40.889665   -14.125641    -4.102219    41.101233    41.101233    82.202465 
    7900    790.62835   -25444.074   -26261.546    249.11324    -156.1762    321.20603    582.30988    41.102938    41.102938    82.205877 
    8000    791.12623   -25443.411   -26261.397    88.516607    76.142648   -90.567159    279.97433    41.105029    41.105029    82.210058 
    8100    800.75265   -25442.773   -26270.713   -203.27696   -176.18988    26.534534   -460.17553    41.106696    41.106696    82.213393 
    8200    795.80836   -25442.164   -26264.991   -170.92177   -555.30381    41.009898    1.5286153    41.107517    41.107517    82.215035 
    8300    806.24405   -25441.568   -26275.186   -231.44108   -182.03078    -107.3983   -404.89415    41.107381    41.107381    82.214761 
    8400    794.66008    -25441.04    -26262.68    101.02036     392.5312   -309.13213    219.66202    41.106385    41.106385    82.212769 
    8500    791.08784   -25440.509   -26258.456    220.85846   -167.04917    405.33738    424.28716      41.1056      41.1056      82.2112 
    8600    801.68361   -25440.001   -26268.904    11.006662   -113.58821    284.96564   -138.35744    41.105001    41.105001    82.210001 
    8700    795.75206   -25439.573   -26262.342    115.44486    112.47142   -170.31926    404.18242    41.104495    41.104495     82.20899 
    8800    799.51751   -25439.165   -26265.827      15.8225   -234.76239   -64.397099    346.62699    41.104553    41.104553    82.209106 
    8900    793.60958    -25438.77   -26259.324    253.74646    363.50725    354.24691    43.485224    41.105087    41.105087    82.210175 
    9000     792.0553   -25438.395   -26257.342    180.82404    167.82393    143.22419    231.42401    41.106123    41.106123    82.212246 
    9100    789.00787    -25438.05   -26253.846    215.15101    356.72605    10.729978      277.997    41.107252    41.107252    82.214503 
    9200    796.56923   -25437.703   -26261.318   -77.303212    194.70014    106.85788   -533.46765    41.108427    41.108427    82.216854 
    9300    801.94429   -25437.354   -26266.526   -173.31745   -104.90833   -205.28344   -209.76058    41.109119    41.109119    82.218237 
    9400    805.84633   -25437.034   -26270.241   -331.62182   -200.73827    -523.6469   -270.48028    41.108924    41.108924    82.217849 
    9500    802.95041   -25436.774   -26266.986   -121.14365   -299.90474   -370.27228    306.74606    41.107667    41.107667    82.215334 
    9600    794.85432   -25436.543   -26258.384     180.6547    217.92481    140.59298    183.44631    41.106232    41.106232    82.212464 
    9700     813.2763   -25436.246   -26277.134   -288.79408   -231.29539   -507.47237   -127.61447    41.105782    41.105782    82.211564 
    9800    802.89719   -25436.009   -26266.166    35.468944    268.12898   -246.50902    84.786872    41.105537    41.105537    82.211074 
    9900    800.24096   -25435.759   -26263.169    59.669319   -199.84346     97.33508    281.51634    41.106288    41.106288    82.212576 
   10000    795.93001   -25435.538   -26258.491    70.413261   -202.68391   -83.407445    497.33113    41.107419    41.107419    82.214838 
   10100     803.6873   -25435.326     -26266.3   -94.727036   -588.43527   -151.84872    456.10288    41.108836    41.108836    82.217672 
   10200    808.07236   -25435.124   -26270.632   -347.21147   -305.00112   -232.97117   -503.66211    41.110197    41.110197    82.220393 
   10300    784.43796   -25434.996   -26246.067    331.58351    253.62169    180.51393    560.61491    41.110231    41.110231    82.220461 
   10400    805.06513    -25434.83   -26267.229   -227.38413   -385.29782   -389.32269    92.468119    41.109946    41.109946    82.219892 
   10500    807.17314   -25434.684   -26269.262    -248.3543   -217.31303   -304.25222   -223.49766    41.109042    41.109042    82.218084 
   10600    790.37699   -25434.557   -26251.769    292.25604    650.98608   -2.4458404    228.22787    41.107909    41.107909    82.215819 
   10700    807.22728   -25434.446    -26269.08   -96.740041   -499.20306    263.79585   -54.812914    41.107175    41.107175    82.214349 
   10800    790.90281   -25434.371   -26252.126    261.57317      26.6101    483.49313    274.61627    41.106745    41.106745     82.21349 
   10900    803.15613   -25434.239   -26264.664    21.156059   -379.71964   -13.195393    456.38321     41.10747     41.10747     82.21494 
   11000    811.94464   -25434.173   -26273.685   -190.86692   -4.5847568   -467.67505   -100.34095     41.10834     41.10834    82.216679 
   11100    799.51531   -25434.185   -26260.845   -45.824906    25.736544   -73.038922   -90.172341    41.108795    41.108795     82.21759 
   11200    801.11476   -25434.135   -26262.449   -81.888028   -195.71248   -208.87886    158.92727    41.109536    41.109536    82.219071 
   11300    797.51164    -25434.08   -26258.668   -47.394438   -432.44471     169.9802    120.28119    41.109932    41.109932    82.219863 
   11400     807.4654   -25434.048   -26268.928   -241.40903   -129.24039   -202.61911   -392.36759    41.109558    41.109558    82.219117 
   11500    801.97947   -25434.018   -26263.226   -43.561152    39.470168   -286.83549    116.68187    41.108598    41.108598    82.217195 
   11600    794.13544   -25434.004   -26255.102    156.92915    55.731865    113.93637     301.1192    41.107495    41.107495    82.214989 
   11700    801.68712   -25433.941   -26262.847    -1.741795    56.686857    70.462539   -132.37478    41.107065    41.107065     82.21413 
   11800    794.88188   -25433.914   -26255.784    188.47769    179.38943   -31.403265    417.44692    41.106798    41.106798    82.213596 
   11900    790.20663   -25433.893   -26250.929    214.96764    229.76195   -69.904392    485.04537    41.107019    41.107019    82.214038 
   12000      800.508   -25433.866   -26261.553    49.384502   -417.76219    251.46198    314.45372    41.107659    41.107659    82.215317 
   12100    807.01956   -25433.874   -26268.293   -107.94306   -281.41929   -207.65852    165.24863     41.10817     41.10817     82.21634 
   12200    806.42333   -25433.886   -26267.689   -175.69464   -263.71047   -184.53987    -78.83357     41.10876     41.10876    82.217519 
   12300    796.58338   -25433.866   -26257.495    40.733357    358.90358   -226.15316   -10.550343    41.109412    41.109412    82.218823 
   12400    805.55835   -25433.802    -26266.71   -224.29741   -241.72804   -41.008534   -390.15567    41.109954    41.109954    82.219908 
   12500    803.14694   -25433.801   -26264.216   -84.567563   -228.93109   -38.176831    13.405234    41.109297    41.109297    82.218593 
   12600    802.63218   -25433.831   -26263.714   -16.707992    33.225536   -220.92805    137.57854    41.108254    41.108254    82.216507 
   12700    795.77487   -25433.871   -26256.664    156.89236   -51.020474    212.01527    309.68229    41.107485    41.107485     82.21497 
   12800    803.00836   -25433.917   -26264.189    22.308887     225.5536   -170.43418    11.807238    41.107137    41.107137    82.214274 
   12900    800.33424   -25433.929   -26261.436   -39.539337   -97.087839    164.62358   -186.15375     41.10752     41.10752     82.21504 
   13000    790.54778   -25433.926   -26251.314    228.33194    551.71544   -67.530848    200.81123    41.108081    41.108081    82.216163 
   13100    795.99789   -25433.936   -26256.959    32.898783    143.74926     150.5997   -195.65261    41.108545    41.108545     82.21709 
   13200    806.84694   -25433.883   -26268.124   -162.93145     50.60372    -623.4579    84.059836    41.109235    41.109235     82.21847 
   13300    791.62222   -25433.887   -26252.386    202.77343    63.105986    93.416909    451.79739    41.109078    41.109078    82.218156 
   13400    801.28745   -25433.861   -26262.354   -56.448769   -129.41741   -344.14913    304.22023    41.108893    41.108893    82.217786 
   13500    797.85782   -25433.896   -26258.843    137.14612    452.96762     80.27618   -121.80544    41.108145    41.108145     82.21629 
   13600    787.39574   -25433.902   -26248.032    314.57411    190.11642     531.5723    222.03362    41.107739    41.107739    82.215478 
   13700    800.91016   -25433.883   -26261.985    11.459294   -237.74725   -44.228217    316.35335    41.107863    41.107863    82.215727 
   13800    811.25782   -25433.892   -26272.694   -291.55788   -393.34548    31.568653   -512.89682    41.107993    41.107993    82.215986 
   13900    803.44872    -25433.87   -26264.597   -47.410747   -308.48794    127.08585    39.169853    41.108332    41.108332    82.216664 
   14000    796.29352   -25433.872   -26257.201    52.688921    200.72096   -36.076934   -6.5772633    41.108631    41.108631    82.217262 
   14100    798.44372   -25433.883   -26259.435   -22.938352    213.73529   -80.988443   -201.56191    41.108687    41.108687    82.217373 
   14200    800.93166    -25433.83   -26261.955    22.948145   -364.63398    472.15914   -38.680728     41.10909     41.10909    82.218181 
   14300    804.17789   -25433.833   -26265.315   -124.29114    454.89057   -691.02782   -136.73617     41.10909     41.10909    82.218179 
   14400    789.89742   -25433.822   -26250.538    281.84346     296.0489    322.36918    227.11229    41.109273    41.109273    82.218545 
   14500    805.29142   -25433.804   -26266.437   -131.55022   -298.53372    -417.8912    321.77426    41.109726    41.109726    82.219453 
   14600    794.41602   -25433.848   -26255.236    73.630647   -23.302385    263.03895   -18.844622    41.109568    41.109568    82.219135 
   14700    799.94663   -25433.865   -26260.971   -148.56879   -41.782292   -128.84317   -275.08089    41.109294    41.109294    82.218588 
   14800    808.27677   -25433.903   -26269.622   -157.97547    77.299622   -54.009891   -497.21613    41.108574    41.108574    82.217148 
   14900    811.86131   -25433.971   -26273.397   -235.26075   -549.15294    104.51456   -261.14387    41.107982    41.107982    82.215964 
   15000    799.69721   -25434.051   -26260.899    82.689707    522.13263   -66.945004    -207.1185    41.107704    41.107704    82.215408 
   15100    806.51761   -25434.115   -26268.015   -78.036273    310.96171   -267.51323    -277.5573     41.10786     41.10786    82.215719 
   15200    801.06804   -25434.241   -26262.507   0.21815084    56.407112    108.47644    -164.2291    41.107843    41.107843    82.215686 
   15300    799.34603   -25434.371   -26260.857    9.4966387   -499.31426    373.21653    154.58765    41.107782    41.107782    82.215563 
   15400    794.56055   -25434.466   -26256.003    116.70072    429.72242    446.42426   -526.04451    41.107827    41.107827    82.215655 
   15500    805.38289   -25434.536   -26267.263    -124.8144   -26.853537   -101.42544   -246.16423    41.108011    41.108011    82.216021 
   15600    800.27201   -25434.634   -26262.077    72.783992    37.515098    739.10565   -558.26877    41.107931    41.107931    82.215862 
   15700    805.83754   -25434.743    -26267.94    -55.42939    242.09628    119.39754   -527.78199    41.108143    41.108143    82.216285 
   15800    799.96118   -25434.875   -26261.997    19.910667   -162.90774    101.81471    120.82502    41.108581    41.108581    82.217161 
   15900    797.16819    -25434.96   -26259.193   -27.231462    120.85763    44.610949   -247.16296    41.109538    41.109538    82.219076 
   16000    782.85835    -25435.07   -26244.508    317.14092    405.35551    638.51135     -92.4441     41.10998     41.10998    82.219959 
   16100     807.9237   -25435.107   -26270.461   -281.60792    -257.8464   -182.78608   -404.19126    41.110083    41.110083    82.220167 
   16200    804.31874   -25435.165   -26266.792   -141.63553    -311.5312   -232.60096    119.22558    41.108923    41.108923    82.217846 
   16300     803.5341   -25435.204   -26266.019   -136.03966   -429.49573    429.43157   -408.05482    41.107312    41.107312    82.214624 
   16400    802.22136   -25435.251   -26264.709    36.999837    329.21117    57.174961   -275.38662    41.105578    41.105578    82.211157 
   16500    790.13893   -25435.351   -26252.316    468.64139    583.65368    201.25664    621.01385    41.103992    41.103992    82.207984 
   16600    797.70576   -25435.441    -26260.23    268.52006    246.99012    404.20586     154.3642    41.103778    41.103778    82.207557 
   16700    791.63081   -25435.514   -26254.022    323.20672    31.067615    412.55723     525.9953    41.105076    41.105076    82.210151 
   16800    807.23719   -25435.578   -26270.222   -142.14705   -181.91418     104.8514   -349.37838    41.107283    41.107283    82.214565 
   16900    796.24073   -25435.622   -26258.896    8.5401525   -62.251432    285.44902   -197.57713    41.109681    41.109681    82.219361 
   17000    806.57107   -25435.634   -26269.589   -324.91396   -346.90337   -328.34496   -299.49356    41.111672    41.111672    82.223344 
   17100    792.28322   -25435.639   -26254.822    29.055881    -88.81662    130.36499    45.619271    41.112196    41.112196    82.224392 
   17200    806.29291   -25435.598   -26269.266    -316.7042   -626.73718   -260.03545   -63.339973     41.11177     41.11177    82.223541 
   17300    797.71742   -25435.588    -26260.39    -52.15221   -78.278506    -1.302673   -76.875451    41.109955    41.109955    82.219909 
   17400    799.17751   -25435.601   -26261.912      51.4079   -88.982457    47.460671    195.74549    41.107453    41.107453    82.214906 
   17500    796.01823    -25435.59   -26258.635    264.83977    323.33445    214.94692    256.23795    41.105329    41.105329    82.210659 
   17600    795.08233   -25435.574   -26257.651    322.81459    609.89292    552.41403   -193.86319    41.104341    41.104341    82.208682 
   17700    800.78215   -25435.587   -26263.557      76.7046   -124.20171    497.35246   -143.03695    41.104731    41.104731    82.209461 
   17800    792.98414    -25435.56   -26255.468    260.40259    623.10554    116.31655    41.785689    41.106329    41.106329    82.212658 
   17900    797.16583   -25435.561   -26259.792   -45.136951    397.80463   -312.61423   -220.60125     41.10819     41.10819     82.21638 
   18000     794.9276   -25435.518   -26257.435   -64.051478   -71.218215   -88.560005   -32.376212    41.109802    41.109802    82.219604 
   18100    796.71202   -25435.473   -26259.235   -35.905231   -40.984779   -149.34742    82.616509    41.110269    41.110269    82.220538 
   18200    788.84649   -25435.449   -26251.078     109.8029   -213.94363    476.36603    66.986293    41.109656    41.109656    82.219311 
   18300    790.34124   -25435.432   -26252.607    124.65512    103.97264    75.790317     194.2024    41.108225    41.108225     82.21645 
   18400    805.67703   -25435.349    -26268.38   -177.24277   -136.86446   -200.09754   -194.76632    41.107075    41.107075     82.21415 
   18500    791.45619    -25435.32   -26253.647    411.66823    90.474211    501.28748    643.24299    41.105822    41.105822    82.211645 
   18600    797.57489   -25435.288   -26259.942    166.00772    428.96843   -292.57504    361.62976    41.105659    41.105659    82.211317 
   18700    807.61922   -25435.254   -26270.293   -32.274978    244.43779   -297.74224   -43.520484    41.106336    41.106336    82.212673 
   18800    795.88114   -25435.261   -26258.163    154.02584    212.30049    753.93101   -504.15399    41.107252    41.107252    82.214505 
   18900    798.37343   -25435.227   -26260.707   -35.919092   -276.43319    79.860385     88.81553    41.108826    41.108826    82.217653 
   19000    802.12921    -25435.18   -26264.543    -152.2775    -470.8987    359.80075   -345.73453    41.110234    41.110234    82.220468 
   19100    803.36185   -25435.186   -26265.823   -346.07699   -300.37055   -318.08308   -419.77734    41.110441    41.110441    82.220882 
   19200    795.37127   -25435.164    -26257.54   -13.371422   -235.15146   -6.3512554    201.38845    41.109614    41.109614    82.219229 
   19300     800.8058   -25435.135    -26263.13   -40.700679   -182.93317   -63.154205    123.98534    41.108148    41.108148    82.216295 
   19400    802.94701    -25435.12   -26265.329    38.380874   -145.81318   -106.62357    367.57937    41.106654    41.106654    82.213308 
   19500    806.41426   -25435.112   -26268.906   -5.0534338    219.94371   -206.53871   -28.565304    41.105828    41.105828    82.211656 
   19600    798.79883   -25435.119   -26261.038    102.69027    296.30187    -23.66512    35.434062    41.105774    41.105774    82.211548 
   19700    799.77717   -25435.081   -26262.012    117.21693   -60.563521    320.51109    91.703204    41.106828    41.106828    82.213656 
   19800    797.12778   -25435.053   -26259.245    115.91187    332.92161      259.271   -244.45701     41.10837     41.10837     82.21674 
   19900    792.25365   -25435.017    -26254.17     124.9301   -260.94822    584.25853    51.480006    41.109986    41.109986    82.219972 
   20000    796.53286   -25435.005   -26258.582   -107.41553   -305.68965   -17.370525   0.81358615     41.11075     41.11075      82.2215 
   20100    796.44704   -25434.997   -26258.485    54.559485    47.653176   -80.077024     196.1023    41.110272    41.110272    82.220545 
   20200    812.82768   -25434.964   -26275.389   -400.62576   -980.86975    -355.6321    134.62458    41.109378    41.109378    82.218756 
   20300    802.56981   -25434.976   -26264.794   -135.33816   -136.03035   -86.386224   -183.59792    41.107698    41.107698    82.215395 
   20400    798.92879   -25434.952   -26261.006    15.149248    439.34007   -78.730929   -315.16139    41.106211    41.106211    82.212421 
   20500      809.251   -25434.889   -26271.615   -112.41322   -365.94753   -238.49192    267.19979    41.105397    41.105397    82.210795 
   20600    797.56122   -25434.856   -26259.496    217.43836   -374.98187    467.12283    560.17412    41.105166    41.105166    82.210331 
   20700    798.94802   -25434.812   -26260.886    105.38254   -202.04074    455.71233    62.476026    41.105955    41.105955    82.211911 
   20800     803.9897   -25434.814   -26266.101   -43.814344   -202.50557    134.72148   -63.658936    41.107173    41.107173    82.214346 
   20900    803.82403   -25434.812   -26265.927   -101.35078   -286.01315   -316.70699    298.66779    41.108751    41.108751    82.217502 
   21000    798.94123   -25434.859   -26260.926   -7.9142441   -162.39818    308.57516   -169.91972    41.109747    41.109747    82.219494 
   21100    794.80335   -25434.902    -26256.69    69.692918    266.31088   -33.850336   -23.381791     41.11034     41.11034    82.220681 
   21200    807.42625   -25434.933   -26269.773   -283.02811   -122.44606   -152.29966    -574.3386    41.110297    41.110297    82.220595 
   21300    795.59348   -25434.962   -26257.567    51.925743   -212.12612    240.72959    127.17376    41.109385    41.109385     82.21877 
   21400    797.48715   -25435.009   -26259.573    86.536254     327.2535    190.10191   -257.74665    41.108122    41.108122    82.216244 
   21500    793.52637   -25435.043   -26255.511    253.46854    335.23446    670.65153   -245.48037     41.10698     41.10698    82.213959 
   21600    800.15063    -25435.07   -26262.388    104.19528    74.141776    504.15522   -265.71115    41.106336    41.106336    82.212671 
   21700    796.41877   -25435.087   -26258.546    236.44043    210.82903    55.032889    443.45937    41.106456    41.106456    82.212913 
   21800    799.69394   -25435.126   -26261.971    37.637303     87.44037    200.79402   -175.32248    41.107111    41.107111    82.214221 
   21900     803.4513   -25435.176   -26265.906   -119.38418   -334.61623    231.62342   -255.15972    41.107766    41.107766    82.215533 
   22000    792.22183    -25435.23    -26254.35    157.30512    396.33884    -55.07124    130.64776    41.108146    41.108146    82.216292 
   22100    806.00199   -25435.219   -26268.586   -155.59775   -113.26992   -604.99259    251.46927    41.108867    41.108867    82.217734 
   22200    800.22703   -25435.199   -26262.595   -121.66735   -145.75344   -137.25077   -81.997829    41.109285    41.109285    82.218569 
   22300    801.92451    -25435.17   -26264.322   -101.98103    180.02839   -602.83105    116.85958    41.109163    41.109163    82.218326 
   22400    804.61902   -25435.091   -26267.029   -111.51517   -213.34683   -393.91799    272.71929     41.10905     41.10905    82.218099 
   22500     804.0605   -25435.049   -26266.409   -84.711742    54.676065   -77.341801   -231.46949    41.108278    41.108278    82.216557 
   22600    797.92807   -25434.988   -26260.007    40.354388   -171.32792      329.654   -37.262911    41.107601    41.107601    82.215202 
   22700    792.60157   -25434.911   -26254.423    178.75173    326.07652    315.83921   -105.66056    41.107086    41.107086    82.214172 
   22800    797.63959   -25434.859    -26259.58    60.849719   -412.28782    330.26601    264.57097    41.106757    41.106757    82.213513 
   22900    804.92321   -25434.795   -26267.047    35.227298   -356.52072    341.28587    120.91675    41.107056    41.107056    82.214112 
   23000    795.17775   -25434.766   -26256.941    169.56022   -353.06715    677.55481    184.19299    41.107761    41.107761    82.215522 
   23100    802.26926   -25434.724   -26264.232   -73.269231   -288.13256    381.91955   -313.59468    41.108821    41.108821    82.217641 
   23200    794.63069   -25434.736   -26256.346    106.50554    119.00837    301.35354   -100.84529    41.109354    41.109354    82.218708 
   23300     799.6997   -25434.721   -26261.572   -61.260781   -221.57802     25.80938    11.986296    41.109904    41.109904    82.219807 
   23400    805.05255   -25434.696   -26267.082   -171.28061   -536.60668    -2.613088    25.377922    41.110032    41.110032    82.220064 
   23500    795.64274   -25434.723   -26257.379    75.472408   -318.00387   -10.887223    555.30831    41.109212    41.109212    82.218425 
   23600    808.32494   -25434.679   -26270.448   -241.96489   -591.14343    89.766687   -224.51794    41.108657    41.108657    82.217314 
   23700    798.05596   -25434.669    -26259.82    104.77553    198.17663   -302.84888    418.99885    41.107829    41.107829    82.215659 
   23800    803.16642   -25434.648   -26265.083   -70.697361   -213.98996     109.7807   -107.88282    41.107453    41.107453    82.214906 
   23900    797.79505   -25434.652   -26259.534    111.53282    384.88371   -212.52982    162.24456    41.107259    41.107259    82.214518 
   24000    798.20645   -25434.675   -26259.982    79.075246    215.34873   -235.96992    257.84693    41.107394    41.107394    82.214787 
   24100    808.90216   -25434.699   -26271.065   -174.44392   -231.03274   -464.91325    172.61423    41.107807    41.107807    82.215614 
   24200    803.43429   -25434.778   -26265.491   -66.600129    4.1464256   -155.01201     -48.9348    41.107826    41.107826    82.215651 
   24300    795.80106    -25434.81    -26257.63    42.974463    -365.1459    53.127337    440.94195    41.108044    41.108044    82.216088 
   24400    805.87528   -25434.836   -26268.072   -99.285779    58.642027   -94.291725   -262.20764    41.108157    41.108157    82.216314 
   24500     802.5269   -25434.862   -26264.636   -89.080997   -277.55528    286.18365   -275.87135    41.108267    41.108267    82.216534 
   24600    790.00097   -25434.895   -26251.718    185.80044    416.42735   -212.62396    353.59792    41.108244    41.108244    82.216489 
   24700    795.10423   -25434.923   -26257.022    106.01646    2.5808145    508.79308   -193.32451     41.10815     41.10815      82.2163 
   24800    793.95002   -25434.956   -26255.862    223.45136     1102.205   -192.34999   -239.50095    41.107886    41.107886    82.215772 
   24900    808.39727    -25434.97   -26270.814   -232.96804   -26.545139    181.91195   -854.27093    41.107967    41.107967    82.215934 
   25000    804.91897   -25435.002    -26267.25   -35.036138    366.39367   -596.23801    124.73592    41.107758    41.107758    82.215516 
   25100    807.40976   -25434.985   -26269.808   -341.77436    85.290204   -549.72742   -560.88587    41.108077    41.108077    82.216155 
   25200    800.47099   -25434.936   -26262.584    10.458194    161.86419   -42.007681   -88.481931    41.108254    41.108254    82.216509 
   25300    796.69097   -25434.952   -26258.693    31.252532    220.39547   -536.97011    410.33223    41.107858    41.107858    82.215716 
   25400    801.30033   -25434.963   -26263.469   -75.922766     289.0277   -250.87327   -265.92273    41.107289    41.107289    82.214578 
   25500    786.56328   -25434.976   -26248.244    360.49497    329.69079    142.14161    609.65252     41.10645     41.10645    82.212901 
   25600    796.81936   -25434.941   -26258.813    111.35171   -227.48177    287.51415    274.02276     41.10621     41.10621    82.212419 
   25700    792.65854   -25434.906   -26254.477    190.96923    149.51871     156.5228    266.86618    41.106181    41.106181    82.212362 
   25800    795.80526   -25434.839   -26257.663     102.5153    281.35441    396.08125   -369.88975    41.106747    41.106747    82.213495 
   25900    797.33463   -25434.822   -26259.228    104.71335   -200.63853    140.93166    373.84692    41.107152    41.107152    82.214304 
   26000    801.43475    -25434.79   -26263.435   -77.925308   -415.17115     162.1758    19.219425    41.107869    41.107869    82.215738 
   26100    792.31445   -25434.753   -26253.968    260.77965    249.42464     95.12908    437.78522    41.108596    41.108596    82.217193 
   26200    797.21792   -25434.704   -26258.989    34.203472    192.05077    -123.2871    33.846744    41.109684    41.109684    82.219368 
   26300    795.45485   -25434.678    -26257.14   -71.212248    -189.0578   -342.82216    318.24321    41.110204    41.110204    82.220408 
   26400    798.91118    -25434.63   -26260.666   -76.798164    112.23869   -477.09026    134.45707    41.110063    41.110063    82.220125 
   26500    804.62423   -25434.563   -26266.506   -160.74244   -390.45998    -45.31911   -46.448242    41.109126    41.109126    82.218253 
   26600    798.10269   -25434.504   -26259.704    50.409576   -329.88453    250.86216     230.2511    41.107528    41.107528    82.215055 
   26700    796.03112   -25434.414   -26257.471    193.84944    227.78006    241.61951    112.14876    41.106219    41.106219    82.212438 
   26800     793.1829   -25434.335   -26254.448    232.85414    182.30958    230.70814     285.5447    41.105585    41.105585     82.21117 
   26900    794.61164   -25434.273   -26255.863    318.24292     240.4076    564.51852    149.80264    41.105795    41.105795    82.211589 
   27000      797.107   -25434.215   -26258.386    155.75163   -143.08119    231.40131    378.93477    41.107034    41.107034    82.214068 
   27100    802.41267   -25434.179   -26263.835    -31.05236   -115.71744    32.991188   -10.430823     41.10866     41.10866    82.217321 
   27200    797.98191   -25434.152   -26259.227    -120.8323    125.49819   -287.38067   -200.61442    41.110007    41.110007    82.220015 
   27300    800.16732   -25434.113   -26261.447   -149.72177   -219.51516   -125.28569   -104.36447    41.110663    41.110663    82.221326 
   27400    798.60917   -25434.106   -26259.829   -35.099942   -182.35502  -0.29089401    77.346082    41.110375    41.110375    82.220751 
   27500     793.0727   -25434.096   -26254.095    199.34403   -48.492852    92.219932    554.30502    41.109553    41.109553    82.219106 
   27600     801.7001   -25434.088   -26263.007   -70.305741    166.31276    101.16122    -478.3912    41.108465    41.108465    82.216931 
   27700    796.75468   -25434.063   -26257.869    134.18171    354.12696    66.537197   -18.119029    41.107494    41.107494    82.214989 
   27800    803.99362   -25434.051   -26265.341   -5.8294383   -138.93997    131.03587   -9.5842088    41.106981    41.106981    82.213961 
   27900    803.25391   -25434.026   -26264.551   -21.369152    78.992034   -140.84276   -2.2567321    41.107217    41.107217    82.214434 
   28000    805.13562   -25433.998   -26266.469   -163.54227   -55.127211   -24.484162   -411.01544    41.107811    41.107811    82.215621 
   28100     802.1367   -25434.009   -26263.379   -57.670652   -171.60568    189.34247   -190.74874    41.107913    41.107913    82.215826 
   28200    800.82863   -25434.007   -26262.026    36.458596    31.127623    61.445081    16.803084    41.108103    41.108103    82.216205 
   28300    789.81886   -25434.043   -26250.678    254.88307    39.563602    552.68521    172.40039    41.108207    41.108207    82.216415 
   28400    802.29401   -25434.035   -26263.569    -107.9208   -159.51713    9.6133368    -173.8586    41.108661    41.108661    82.217322 
   28500    802.20061   -25434.064   -26263.501   -6.1815516    6.5653337    172.08739   -197.19738    41.108719    41.108719    82.217437 
   28600    804.57357   -25434.113   -26266.004   -57.271868   -47.394679   -57.821566   -66.599358    41.108586    41.108586    82.217173 
   28700    793.85758   -25434.157   -26254.967    241.61968    442.52312    305.52315   -23.187216     41.10863     41.10863    82.217261 
   28800    796.97667   -25434.223   -26258.258   -12.602888    341.08344   -175.77764   -203.11447    41.108884    41.108884    82.217767 
   28900    805.93155    -25434.27   -26267.564   -124.27232    96.305956   -333.71991   -135.40301    41.108946    41.108946    82.217893 
   29000     800.6399   -25434.376   -26262.199   -56.604957    150.13822   -149.38379    -170.5693    41.108242    41.108242    82.216484 
   29100    803.15315   -25434.433   -26264.855   -79.905492   -303.83152   -35.238251    99.353293    41.107557    41.107557    82.215114 
   29200    800.37725   -25434.491   -26262.042    45.435337   -86.274126    244.54964   -21.969508    41.106678    41.106678    82.213357 
   29300    794.04493   -25434.531   -26255.535     208.9759   -157.26766    68.356595    715.83877     41.10626     41.10626    82.212521 
   29400    807.04144   -25434.532   -26268.974   -117.99763    325.29028   -85.630685   -593.65248    41.106712    41.106712    82.213425 
   29500    794.48999   -25434.576    -26256.04    176.05199     322.9839    118.69077     86.48129    41.107396    41.107396    82.214792 
   29600    788.97185   -25434.599   -26250.358    275.47749    45.894436    568.74466    211.79338    41.108584    41.108584    82.217169 
   29700    801.57093   -25434.616   -26263.402    -81.21225    341.26729   -237.83728   -347.06676    41.109901    41.109901    82.219802 
   29800    802.49008   -25434.634    -26264.37   -111.34839   -38.585008    -176.5536   -118.90657    41.110659    41.110659    82.221318 
   29900    795.03858   -25434.679   -26256.711   -14.754039    267.91658   -71.163689   -241.01501    41.110393    41.110393    82.220787 
   30000    795.07663   -25434.668   -26256.739    76.560854    194.92396    238.81927   -204.06067    41.109684    41.109684    82.219367 
   30100    808.73159   -25434.638   -26270.827      -256.32   -429.56639    149.15385   -488.54746    41.108779    41.108779    82.217558 
   30200    801.32172   -25434.665   -26263.193    28.301891    199.19373    12.414747    -126.7028    41.107311    41.107311    82.214623 
   30300      796.077   -25434.662   -26257.768    226.87917    118.00298    381.75044    180.88409    41.106596    41.106596    82.213192 
   30400    795.06589   -25434.664   -26256.724    225.41283    169.94012    108.45923    397.83915     41.10669     41.10669     82.21338 
   30500     796.2059   -25434.691    -26257.93     68.51905     60.52597   -7.9688015    152.99998    41.107238    41.107238    82.214476 
   30600    802.35186   -25434.659   -26264.252   -137.17785   -459.09865   -179.91365    227.47875    41.108315    41.108315     82.21663 
   30700    803.26986     -25434.7   -26265.242   -83.165809   -306.33417   -4.0535064    60.890253    41.108364    41.108364    82.216729 
   30800    797.55207   -25434.767   -26259.398   -58.101484   -338.81058     81.42283      83.0833    41.107852    41.107852    82.215703 
   30900    797.54438   -25434.741   -26259.363    127.58489    321.29684    131.63607   -70.178248    41.107642    41.107642    82.215285 
   31000     802.2499   -25434.729   -26264.216   -76.948475   -516.83862    285.35751    0.6356857    41.107575    41.107575     82.21515 
   31100    790.54994   -25434.699    -26252.09    272.58598    443.67452     65.67612     308.4073    41.107506    41.107506    82.215013 
   31200    800.27887   -25434.687   -26262.137    -3.125819    13.752285    149.19409   -172.32383    41.107512    41.107512    82.215023 
   31300    796.71906   -25434.667   -26258.436    5.6380086    25.128637   -216.82664    208.61203    41.107787    41.107787    82.215574 
   31400    797.46482   -25434.641   -26259.181    32.612606    297.72629    15.868758   -215.75723    41.108048    41.108048    82.216096 
   31500    790.17046   -25434.655   -26251.654    220.26979    231.43907    184.10699    245.26331    41.107998    41.107998    82.215996 
   31600    789.92764   -25434.615   -26251.362    261.16033    144.19177    356.88127    282.40795    41.108225    41.108225     82.21645 
   31700    796.55105   -25434.559   -26258.155   -12.402369    85.653024   -239.98135    117.12122    41.108624    41.108624    82.217248 
   31800    797.04875   -25434.505   -26258.615  -0.25879842   -73.275271    118.61605   -46.117171    41.108706    41.108706    82.217412 
   31900     798.3865   -25434.467    -26259.96     96.72545   -235.71592     65.52586    460.36641    41.108416    41.108416    82.216832 
   32000    792.08142   -25434.438   -26253.412    219.61343   -109.57987    215.74391    552.67626    41.108284    41.108284    82.216568 
   32100    793.84807   -25434.426   -26255.227     203.8096   -109.17778    489.60815    230.99844    41.108117    41.108117    82.216234 
   32200    804.43633   -25434.445   -26266.193   -118.40314    87.408619   -317.11589   -125.50214    41.108059    41.108059    82.216118 
   32300    802.42439   -25434.468   -26264.136   -72.081717   -230.05205   -87.514037    101.32093    41.108295    41.108295    82.216589 
   32400    801.64634   -25434.508   -26263.372   -84.534853   -328.78004   -48.958246    124.13372    41.108644    41.108644    82.217288 
   32500    800.73567    -25434.54   -26262.462   -38.021148    35.064433   -172.78637    23.658491    41.108837    41.108837    82.217675 
   32600    800.95081   -25434.539   -26262.684    35.951873    484.36249   -287.04453    -89.46234    41.109089    41.109089    82.218179 
   32700     803.4643   -25434.522   -26265.265   -75.503346    49.137136   -121.38545   -154.26172    41.109503    41.109503    82.219006 
   32800    798.32251   -25434.574   -26260.001    -1.492382    108.51954    138.01497   -251.01165    41.109262    41.109262    82.218525 
   32900     802.6963   -25434.604   -26264.553    19.615161    39.929429    -378.6965    397.61255    41.109083    41.109083    82.218167 
   33000    793.92401   -25434.665   -26255.544    86.428888    240.97818    103.89095   -85.582467    41.109015    41.109015    82.218029 
   33100    807.08709   -25434.706   -26269.195    -169.9159   -189.24259   -171.47235   -149.03276    41.109049    41.109049    82.218098 
   33200    811.91779   -25434.742   -26274.226   -302.06139   -223.72876   -256.46575   -425.98966    41.109017    41.109017    82.218034 
   33300    799.89245   -25434.781   -26261.832   -4.0802391   -404.99978    351.56478    41.194289    41.109048    41.109048    82.218096 
   33400    801.37703   -25434.811   -26263.397   -81.004631    200.03593   -452.59999    9.5501704    41.109089    41.109089    82.218177 
   33500    796.34294    -25434.82     -26258.2    147.17294    96.218327    167.44801    177.85248    41.109116    41.109116    82.218231 
   33600    805.41947    -25434.83   -26267.595   -62.718554    37.434735   -414.85808    189.26768    41.109296    41.109296    82.218592 
   33700    805.18271   -25434.848   -26267.368   -171.03856   -558.79362   -294.29835     339.9763    41.109447    41.109447    82.218894 
   33800    797.24374   -25434.844   -26259.156    18.676765   -46.026114   -23.966901    126.02331    41.109318    41.109318    82.218637 
   33900    806.74729   -25434.872    -26269.01   -192.83233   -163.72219   -460.04326    45.268475    41.108528    41.108528    82.217055 
   34000    793.43857   -25434.939   -26255.317    222.94369    168.33318    311.47427    189.02363    41.107235    41.107235     82.21447 
   34100     793.3887   -25434.963   -26255.289    248.53951    216.44358    296.62347    232.55147    41.106654    41.106654    82.213308 
   34200    799.08197   -25435.008    -26261.22    98.007704   -60.481266   -118.50596    473.01034    41.106459    41.106459    82.212918 
   34300    801.66247   -25435.039   -26263.919   -25.746268    332.91236   -162.73699   -247.41418    41.106689    41.106689    82.213378 
   34400    786.48579    -25435.05   -26248.238    395.26315    531.99767    834.97121   -181.17942     41.10702     41.10702    82.214039 
   34500     802.8491   -25435.035   -26265.143   -5.1463363   -71.795307    30.860594    25.495704    41.107699    41.107699    82.215397 
   34600    795.45639   -25435.009   -26257.473    44.363018   -135.83287     174.3877    94.534219     41.10861     41.10861     82.21722 
   34700    799.90397   -25434.992   -26262.055     16.20157    390.06373    15.665894   -357.12491    41.109073    41.109073    82.218146 
   34800      802.001   -25434.967   -26264.198   -80.834173    114.31881    -273.5978   -83.223525    41.109228    41.109228    82.218456 
   34900    799.33409   -25434.937    -26261.41   -19.362974    171.27725    121.51976   -350.88593    41.109032    41.109032    82.218065 
   35000     805.3459   -25434.916   -26267.605   -176.73213   -340.00784    44.179791   -234.36834    41.108563    41.108563    82.217126 
   35100    804.29548   -25434.925   -26266.528   -111.59842   -250.88083   -26.455279   -57.459134    41.107743    41.107743    82.215486 
   35200    801.01492   -25434.937   -26263.148   -3.9952234   -31.325088    216.40112    -197.0617     41.10683     41.10683    82.213659 
   35300    799.34362   -25434.915   -26261.398    63.531513    252.09854    132.75127   -194.25528    41.106344    41.106344    82.212687 
   35400    804.73964   -25434.893   -26266.955   -59.108256   -60.066444    157.91816   -275.17649    41.106335    41.106335     82.21267 
   35500    800.72569   -25434.914   -26262.826    47.149297    385.28851   -157.00247   -86.838152    41.106552    41.106552    82.213103 
   35600    795.43642   -25434.953   -26257.396    100.89759   -119.40121    496.52424   -74.430249    41.107243    41.107243    82.214487 
   35700    800.68205   -25434.971   -26262.838    86.222851   -247.00719    470.63702     35.03872    41.108411    41.108411    82.216821 
   35800    803.47873    -25435.02   -26265.778   -87.782329   -218.81192    94.215833    -138.7509    41.109574    41.109574    82.219148 
   35900    803.40929   -25435.044    -26265.73   -212.07499    249.34263   -200.55287   -685.01473    41.110606    41.110606    82.221211 
   36000    796.55777   -25435.071   -26258.673    -33.35527   -75.693718   -94.882311    70.510218    41.110844    41.110844    82.221688 
   36100    793.76078   -25435.094   -26255.805     87.71693   -43.935514    75.536519    231.54979    41.110467    41.110467    82.220935 
   36200    795.16911   -25435.103   -26257.269     103.0603    432.97439   -151.47201    27.678524    41.109533    41.109533    82.219066 
   36300     807.0974   -25435.113   -26269.613   -210.47705   -497.73473   -116.02588    -17.67055    41.108331    41.108331    82.216662 
   36400    797.82903   -25435.128   -26260.045    98.875131   -126.39854    122.72942    300.29452    41.106881    41.106881    82.213763 
   36500    801.30653   -25435.147   -26263.659    115.75721    432.57552    160.10617   -245.41007    41.105806    41.105806    82.211611 
   36600    801.24257   -25435.176   -26263.622    108.73992    558.27934    58.850426   -290.91002    41.105637    41.105637    82.211274 
   36700    797.96085   -25435.207    -26260.26    106.08578    370.24062    39.141783   -91.125069    41.106333    41.106333    82.212666 
   36800    785.03753   -25435.236   -26246.927    441.55224    163.38976    484.60931    676.65765    41.107615    41.107615    82.215231 
   36900    801.13421   -25435.248   -26263.582   -51.264342   -74.454553    -164.4759    85.137428    41.109367    41.109367    82.218734 
   37000    803.46403   -25435.274   -26266.017   -66.187428   -59.477155   -11.929268   -127.15586    41.110673    41.110673    82.221345 
   37100    803.19592   -25435.289   -26265.754   -177.73304   -339.62017   -164.94045   -28.638512    41.111593    41.111593    82.223187 
   37200    804.78839   -25435.287     -26267.4   -292.31393    -471.0068   -355.36485   -50.570156    41.111644    41.111644    82.223288 
   37300    797.85134   -25435.286   -26260.226    8.8529124   -22.673399   -40.421262    89.653398    41.110654    41.110654    82.221309 
   37400    798.19639   -25435.289   -26260.586    91.462514    172.75168    133.94532   -32.309462    41.109116    41.109116    82.218232 
   37500    798.13243   -25435.281   -26260.511    139.12737    461.97221   -112.56944    67.979326    41.107832    41.107832    82.215663 
   37600    801.77279   -25435.275    -26264.27    18.712483    272.80139    52.845471   -269.50942    41.107142    41.107142    82.214284 
   37700    813.86594   -25435.274   -26276.772   -285.32965   -431.45232   -388.48586   -36.050784    41.107038    41.107038    82.214076 
   37800     798.7192   -25435.277   -26261.114    53.815685     132.8321    183.94688   -155.33193    41.107441    41.107441    82.214882 
   37900    814.88058   -25435.254   -26277.801   -298.41146    87.906936   -844.49486   -138.64646    41.108379    41.108379    82.216757 
   38000    803.68013    -25435.27   -26266.237   -105.03506   -210.84661   -100.57221   -3.6863575    41.109037    41.109037    82.218075 
   38100    804.43419   -25435.258   -26267.004   -81.348896   -159.63248    101.80261   -186.21681    41.109613    41.109613    82.219225 
   38200    795.24348   -25435.301   -26257.544    21.152371   -331.66011   -74.699395    469.81662    41.109396    41.109396    82.218791 
   38300    810.31075   -25435.353   -26273.175   -238.33509   -343.57067   -471.86386    100.42926    41.108758    41.108758    82.217517 
   38400    805.11738   -25435.409   -26267.861   -88.297173   -333.99442   -169.82629    238.92919    41.108017    41.108017    82.216034 
   38500    797.42097   -25435.446   -26259.941    132.04392   -70.313399   -124.07632    590.52147    41.107613    41.107613    82.215226 
   38600    788.22469   -25435.498   -26250.485    286.09897    171.10189    90.190882    597.00412    41.107551    41.107551    82.215101 
   38700    799.28066   -25435.478   -26261.896   -45.989689    12.142232   -223.22845    73.117152    41.108183    41.108183    82.216367 
   38800    797.88886     -25435.5   -26260.479   -18.921966    248.27959   -267.52498   -37.520508    41.108361    41.108361    82.216721 
   38900    799.72459   -25435.479   -26262.355   -51.420521   -172.92424   -49.671221    68.333903    41.108598    41.108598    82.217196 
   39000    801.59927   -25435.456   -26264.271   -72.178896    249.19376   -22.929427   -442.80102    41.108479    41.108479    82.216957 
   39100    803.76592   -25435.463   -26266.518   -159.01061   -193.29293   -99.277938   -184.46097    41.107796    41.107796    82.215591 
   39200    796.60542   -25435.474   -26259.126    91.183712     178.7858   -47.147912    141.91325    41.106952    41.106952    82.213904 
   39300    798.73753   -25435.446   -26261.302    110.44149   -25.217494    335.27385      21.2681    41.106745    41.106745     82.21349 
   39400    796.61595   -25435.445   -26259.107    141.06242    190.23352    158.95087    74.002879    41.107012    41.107012    82.214024 
   39500    801.46681   -25435.452    -26264.13    57.111899   -112.97397     379.9494   -95.639732    41.107661    41.107661    82.215322 
   39600    790.07041   -25435.454   -26252.349    240.81299    485.20777    257.98595   -20.754743    41.108625    41.108625     82.21725 
   39700    800.62458   -25435.447   -26263.254   -26.183928    368.79654   -205.75141   -241.59692    41.109527    41.109527    82.219053 
   39800    791.63439   -25435.493   -26254.005    117.04466    234.84995    572.09077   -455.80675    41.109583    41.109583    82.219166 
   39900    791.63985   -25435.531   -26254.049    200.25419   -110.69639    1121.2711   -409.81213    41.109076    41.109076    82.218151 
   40000    806.00832    -25435.55   -26268.923   -186.11186   -57.010086   -397.16802   -104.15748    41.108505    41.108505    82.217011 
   40100    807.51217   -25435.556   -26270.484   -220.29059    137.79258   -254.07945    -544.5849    41.107812    41.107812    82.215624 
   40200    803.86704   -25435.536   -26266.696   -107.76274      265.876    52.586391   -641.75061    41.107264    41.107264    82.214528 
   40300    795.52621   -25435.524   -26258.059    223.69942    436.28439    107.76176    127.05211    41.106701    41.106701    82.213402 
   40400    805.94469   -25435.537   -26268.845    -66.35087    97.295081   -95.572633   -200.77506    41.106511    41.106511    82.213023 
   40500     800.3931   -25435.534   -26263.102     99.54153    94.721319     398.1953   -194.29203    41.106874    41.106874    82.213749 
   40600    789.04821   -25435.541   -26251.379    266.89532    677.34036    254.43044   -131.08484    41.107294    41.107294    82.214588 
   40700    794.64376    -25435.51   -26257.134    98.638394     119.2973    56.948483     119.6694    41.107918    41.107918    82.215836 
   40800     801.7679     -25435.5   -26264.489   -87.462845   -481.07151    227.45614   -8.7731634    41.108108    41.108108    82.216216 
   40900    800.85708   -25435.448   -26263.496   -98.639192   -406.52277   -260.01334    370.61853    41.108277    41.108277    82.216554 
   41000    792.09807   -25435.394   -26254.385    127.20147    387.58969    78.973635   -84.958929    41.107951    41.107951    82.215903 
   41100    801.38596   -25435.299   -26263.894   -139.38395   -323.60533   -315.29113     220.7446    41.107593    41.107593    82.215186 
   41200     798.5722   -25435.205    -26260.89   -74.027837    165.25222    280.83975   -668.17549    41.106902    41.106902    82.213804 
   41300    800.29391   -25435.144   -26262.609    9.9566504   -273.11413    251.71144    51.272635    41.105755    41.105755     82.21151 
   41400    807.65119   -25435.063   -26270.136   -59.555496    33.374289    249.93005   -461.97083    41.105219    41.105219    82.210438 
   41500    797.83701   -25434.999   -26259.924    251.87365   -179.23794    780.10081    154.75809    41.105449    41.105449    82.210897 
   41600    815.62274   -25434.931   -26278.246   -323.87334   -518.54314   -188.28538   -264.79148    41.106805    41.106805    82.213611 
   41700    787.59406   -25434.932   -26249.266    334.21163     455.1026    424.28076    123.25154    41.108124    41.108124    82.216248 
   41800    799.50103   -25434.895   -26261.541   -29.833437    70.130784   -58.252326   -101.37877    41.109791    41.109791    82.219582 
   41900    794.00005   -25434.878   -26255.836     44.02858      47.6975   -246.36812    330.75636    41.110823    41.110823    82.221647 
   42000    798.92067   -25434.824    -26260.87    -106.4789    169.73427   -347.94935   -141.22162    41.111525    41.111525     82.22305 
   42100    798.87897   -25434.771   -26260.773   -155.03951    262.03912   -644.06432   -83.093335    41.111337    41.111337    82.222675 
   42200    808.08634   -25434.689   -26270.212    -284.1888   -269.11955   -312.96431   -270.48255    41.110316    41.110316    82.220633 
   42300    801.30478    -25434.62   -26263.131   -95.327372   -113.27902   -213.80875    41.105656    41.108706    41.108706    82.217411 
   42400    804.22041   -25434.575     -26266.1   -56.355327   -133.67024    9.3148098   -44.710547    41.106909    41.106909    82.213818 
   42500    798.66875   -25434.565    -26260.35    176.50988   -214.06186    150.59584    592.99565    41.105396    41.105396    82.210793 
   42600    809.85743   -25434.544   -26271.897   -37.667714   -154.19435   -225.90829     267.0995    41.104951    41.104951    82.209901 
   42700    798.30087   -25434.555   -26259.959    237.06447    140.32164    336.79338    234.07838    41.105351    41.105351    82.210701 
   42800    801.76353   -25434.525    -26263.51    15.294988   -149.86632    47.881446    147.86984    41.107222    41.107222    82.214444 
   42900    797.87885   -25434.494   -26259.462    41.489536   -301.24072    155.02224    270.68709    41.109432    41.109432    82.218864 
   43000    792.71652   -25434.481   -26254.111   -5.6826254    306.10087    239.34444   -562.49318    41.111174    41.111174    82.222347 
   43100    795.30467   -25434.452   -26256.759   -126.18714    137.66815   -189.23682   -326.99274    41.111883    41.111883    82.223765 
   43200    797.55897   -25434.395   -26259.032   -116.33212   -410.27733    461.67986    -400.3989    41.111288    41.111288    82.222576 
   43300    795.93698   -25434.328   -26257.288    1.0516158   -144.28439    619.03458   -471.59534    41.109443    41.109443    82.218886 
   43400    804.12366   -25434.245   -26265.671   -24.618548    265.15025   -22.576817   -316.42907    41.107257    41.107257    82.214514 
   43500    785.19004   -25434.191    -26246.04    426.72735     679.6931    510.93834      89.5506    41.105209    41.105209    82.210417 
   43600    798.44445   -25434.125   -26259.678    230.64782    276.22504    555.39693   -139.67852    41.104302    41.104302    82.208604 
   43700    807.24375   -25434.147   -26268.798    19.417874   -207.64574    281.76885   -15.869482    41.104122    41.104122    82.208244 
   43800    796.87848   -25434.168   -26258.102     331.2876    565.24717    471.61091   -42.995264    41.105437    41.105437    82.210873 
   43900    793.26256   -25434.201   -26254.396    168.94878    345.27164     10.10029    151.47442    41.108104    41.108104    82.216207 
   44000    799.15092   -25434.245   -26260.529   -128.24488    130.76515   -237.77612   -277.72367    41.110784    41.110784    82.221567 
   44100    800.32184   -25434.292   -26261.786   -244.92069   -382.31397    26.862401   -379.31049    41.112359    41.112359    82.224719 
   44200    800.29823   -25434.294   -26261.764   -274.54921    126.60052   -868.56602   -81.682147    41.112585    41.112585     82.22517 
   44300    803.09379    -25434.29   -26264.651   -260.46044   -9.7415649   -445.66544   -325.97432    41.111269    41.111269    82.222537 
   44400    800.68361    -25434.26   -26262.128    -94.63517    110.75942   -713.28913     318.6242    41.108962    41.108962    82.217924 
   44500    799.45425   -25434.239   -26260.837    125.56657    544.76373   -89.806693   -78.257343    41.106369    41.106369    82.212737 
   44600    802.19201   -25434.267   -26263.695    150.74847    168.34257    3.6394252    280.26343    41.104212    41.104212    82.208425 
   44700    799.77348   -25434.323    -26261.25    196.92849    427.48385   -11.208274     174.5099    41.103326    41.103326    82.206652 
   44800    798.51711   -25434.376   -26260.004    153.43249    200.75184   -126.23931    385.78492    41.103949    41.103949    82.207897 
   44900    802.68404    -25434.44   -26264.377    81.038627   -52.353317    262.36777    33.101425    41.105491    41.105491    82.210982 
   45000    799.11675   -25434.504   -26260.753    127.93392    52.686108    275.48127    55.634381    41.107659    41.107659    82.215318 
   45100    797.16296   -25434.563   -26258.791    6.3470579    241.43152   -187.01522   -35.375129    41.109834    41.109834    82.219667 
   45200    800.75531   -25434.622   -26262.565   -162.35721   -465.68368   -81.193314    59.805368    41.111292    41.111292    82.222585 
   45300    802.98909    -25434.64   -26264.892    -307.2344   -314.38843   -617.15607    9.8413158    41.111948    41.111948    82.223897 
   45400    803.28567   -25434.648   -26265.206   -247.71013   -550.34086   -268.71678     75.92725    41.111234    41.111234    82.222469 
   45500    796.15959   -25434.634   -26257.825    23.716708   -189.70022    127.16512    133.68523    41.109627    41.109627    82.219254 
   45600    804.27818   -25434.621   -26266.206   -131.21152   -226.67849   -206.38163    39.425554    41.107426    41.107426    82.214852 
   45700    803.18933   -25434.612   -26265.071    76.171142    176.55096    138.28832    -86.32586    41.104965    41.104965    82.209931 
   45800    801.75885   -25434.597   -26263.577    133.45914    250.28314    381.86233   -231.76805    41.103381    41.103381    82.206761 
   45900    798.27832    -25434.56   -26259.941    255.23017   -131.90201    1064.6922   -167.09966    41.103589    41.103589    82.207178 
   46000    813.60196   -25434.514   -26275.739    -190.7932   -136.90658   -438.55376    3.0807387    41.105423    41.105423    82.210845 
   46100    792.14435   -25434.526   -26253.565    226.00872     666.7634   -83.005431    94.268204    41.107548    41.107548    82.215097 
   46200    794.98598   -25434.506   -26256.483    115.76468    150.39032    213.81141   -16.907695    41.110114    41.110114    82.220227 
   46300    802.27814   -25434.522   -26264.039     -135.571    28.352695     -286.889   -148.17668     41.11204     41.11204    82.224079 
   46400    801.61686    -25434.56   -26263.393   -263.31349   -234.68499   -123.70155   -431.55394    41.112933    41.112933    82.225867 
   46500    803.10875   -25434.583   -26264.959   -314.52985   -307.32236   -348.99787   -287.26933    41.112438    41.112438    82.224877 
   46600    790.94139   -25434.598   -26252.394    38.210483   -11.412347    315.65884   -189.61504    41.110639    41.110639    82.221278 
   46700    796.93021   -25434.604   -26258.592    71.865706    103.54246   -231.52665     343.5813    41.108097    41.108097    82.216193 
   46800    803.00505   -25434.595   -26264.863    82.584419    120.19955   -130.68183    258.23554      41.1056      41.1056      82.2112 
   46900    792.71468   -25434.639   -26254.268    431.91201    269.32166    618.74241    407.67195    41.103414    41.103414    82.206829 
   47000     797.4917   -25434.618   -26259.186    263.83737    352.55567    369.97426    68.982184    41.103409    41.103409    82.206818 
   47100     799.9839   -25434.602   -26261.747    18.279765   -362.63398    401.78646    15.686812    41.105026    41.105026    82.210053 
   47200    801.22069     -25434.6   -26263.024   -2.5118172    270.37175   -115.90284   -162.00437    41.106966    41.106966    82.213931 
   47300    804.72876   -25434.599    -26266.65   -145.28645   -342.48645   -418.52626    325.15337    41.108931    41.108931    82.217863 
   47400    801.75259   -25434.643   -26263.617   -86.112961    290.03475   -338.89161   -209.48203    41.110209    41.110209    82.220418 
   47500    802.77591   -25434.692   -26264.724   -264.47092    40.910821   -398.03444   -436.28914    41.110885    41.110885     82.22177 
   47600    794.12266   -25434.713   -26255.798    21.680409   -51.715085   -123.06741    239.82373     41.11057     41.11057     82.22114 
   47700    802.48936   -25434.699   -26264.434   -171.77487   -161.35834   -181.15858   -172.80769    41.109534    41.109534    82.219068 
   47800    799.70598   -25434.693    -26261.55    13.211795   -76.089253    95.444044    20.280596    41.107846    41.107846    82.215692 
   47900    810.56097   -25434.685   -26272.766   -181.02853   -107.19803   -434.58388    -1.303686    41.106267    41.106267    82.212535 
   48000    793.49584    -25434.73   -26255.166    238.71185    101.51317    439.61437      175.008    41.104913    41.104913    82.209825 
   48100    793.31968   -25434.741   -26254.996    311.72049    623.46688    193.86429    117.83029     41.10485     41.10485      82.2097 
   48200    800.60276   -25434.751   -26262.535    96.061555    -178.4559    100.89374    365.74682    41.106081    41.106081    82.212162 
   48300    804.05193   -25434.798   -26266.149   -4.9145659    16.824388   -253.13461    221.56652    41.107783    41.107783    82.215566 
   48400    795.21137     -25434.9    -26257.11    112.85256   -30.274403    27.251777     341.5803    41.109296    41.109296    82.218591 
   48500    794.25901   -25434.971   -26256.197   -19.907358    340.88621   -196.77268   -203.83561    41.110614    41.110614    82.221229 
   48600    795.49865   -25435.013    -26257.52   -50.602321   -319.90541   -119.39451    287.49296    41.111201    41.111201    82.222403 
   48700    805.12064   -25434.995   -26267.451   -300.31547   -229.39359   -619.55864   -51.994182     41.11117     41.11117     82.22234 
   48800    808.89797   -25434.977   -26271.339   -310.80786   -369.11391   -472.34161   -90.968079    41.110048    41.110048    82.220096 
   48900    797.73371   -25434.975   -26259.794    23.532411    236.89849   -65.271939   -101.02932     41.10817     41.10817    82.216341 
   49000    802.54371   -25434.935   -26264.727    -17.06999   -209.38794    337.61349   -179.43553    41.106585    41.106585     82.21317 
   49100     799.4021   -25434.939   -26261.482     224.1601    222.66014    366.81149    83.008687    41.105074    41.105074    82.210147 
   49200    799.70603   -25434.943     -26261.8    200.96373   -383.48658    741.90149    244.47628    41.104716    41.104716    82.209431 
   49300    802.20761   -25434.936    -26264.38    51.254934    154.75694    164.65447   -165.64661    41.105547    41.105547    82.211093 
   49400    802.52791   -25434.895   -26264.671   -40.269628   -141.31306   -116.73102     137.2352    41.107295    41.107295    82.214591 
   49500    806.79939   -25434.889   -26269.081    -204.2421   -427.46307   -387.80028    202.53705     41.10891     41.10891     82.21782 
   49600    800.92383   -25434.893    -26263.01   -85.648663   -29.875274   -313.37637    86.305652    41.109963    41.109963    82.219927 
   49700    790.70626   -25434.905   -26252.457     164.7352    492.82112   -47.612341    48.996831    41.110471    41.110471    82.220942 
   49800    803.35021   -25434.907   -26265.532   -230.81106   -166.86477   -220.81931    -304.7491     41.11049     41.11049     82.22098 
   49900    794.94053   -25434.902   -26256.832    86.475971    636.78596   -416.36749    39.009438    41.109881    41.109881    82.219761 
   50000    798.41394   -25434.892   -26260.414    48.174757    101.59059   -108.40347    151.33715    41.109095    41.109095     82.21819 
Loop time of 1497.42 on 1 procs for 50000 steps with 8000 atoms

Pair  time (%) = 1355.87 (90.5467)
Neigh time (%) = 100.272 (6.69632)
Comm  time (%) = 8.67505 (0.579332)
Outpt time (%) = 0.653318 (0.0436295)
Other time (%) = 31.9558 (2.13406)

Nlocal:    8000 ave 8000 max 8000 min
Histogram: 1 0 0 0 0 0 0 0 0 0
Nghost:    9131 ave 9131 max 9131 min
Histogram: 1 0 0 0 0 0 0 0 0 0
Neighs:    300446 ave 300446 max 300446 min
Histogram: 1 0 0 0 0 0 0 0 0 0

Total # of neighbors = 300446
Ave neighs/atom = 37.5558
Neighbor list builds = 5000
Dangerous builds = 0
unfix		1

# Melt half the system
region  liquid block INF INF INF INF INF ${nzhalf}
region  liquid block INF INF INF INF INF 10
group	liquid_group region liquid
4011 atoms in group liquid_group

# Heat up one side to Tmelt to make sure it is melted
fix 2 liquid_group npt temp ${Tmelt} ${Tmelt} 1 z 0 0 10 drag 1.0
fix 2 liquid_group npt temp 2000 ${Tmelt} 1 z 0 0 10 drag 1.0
fix 2 liquid_group npt temp 2000 2000 1 z 0 0 10 drag 1.0
run		${eqsteps}
run		50000
Memory usage per processor = 5.95825 Mbytes
Step Temp TotEng PotEng Press Pxx Pyy Pzz Lx Ly Lz 
   50000    798.41394   -25434.892   -26260.414    48.174757    101.59059   -108.40347    151.33715    41.109095    41.109095     82.21819 
   50100    810.72731   -25432.631   -26270.884    -284.5142   -237.18419   -411.25963   -205.09877    41.109095    41.109095    82.218191 
   50200    815.05187    -25427.55   -26270.274   -143.04348   -18.258805   -318.77718   -92.094448    41.109095    41.109095     82.21814 
   50300     817.3461   -25422.774   -26267.871   -109.08329   -141.37245   -496.67899    310.80157    41.109095    41.109095    82.218152 
   50400    809.49573   -25417.881   -26254.861    276.09306    128.89277    394.63212    304.75428    41.109095    41.109095    82.218347 
   50500     814.3267   -25412.434   -26254.409    348.32659    316.76856    399.78338    328.42782    41.109095    41.109095    82.218625 
   50600    817.03529    -25406.72   -26251.495    423.19918    451.53501    149.74505    668.31748    41.109095    41.109095    82.219021 
   50700    827.68095   -25400.822   -26256.605    316.39552    506.71648   -49.499204     491.9693    41.109095    41.109095    82.219717 
   50800    827.34219    -25394.87   -26250.302     526.5063    740.88493    265.91346     572.7205    41.109095    41.109095    82.220727 
   50900    830.86637   -25388.786   -26247.862    635.89695    403.15422    628.72929    875.80734    41.109095    41.109095    82.222045 
   51000    834.17001   -25382.608     -26245.1    708.86959    895.61804    318.92596    912.06476    41.109095    41.109095    82.223791 
   51100    833.52391   -25376.376   -26238.199    930.36545    842.56185     890.7586    1057.7759    41.109095    41.109095    82.226052 
   51200    839.68513   -25370.121   -26238.315    966.02881    1253.8066    813.46557    830.81428    41.109095    41.109095    82.228824 
   51300    845.13052   -25363.789   -26237.613    1030.8139    767.19899    1017.2672    1307.9754    41.109095    41.109095    82.232088 
   51400     837.6741   -25357.404   -26223.518    1351.8121    1768.4496    872.65842    1414.3282    41.109095    41.109095     82.23601 
   51500    843.09581    -25350.97   -26222.691    1355.6899    1570.5137    936.44648    1560.1095    41.109095    41.109095    82.240589 
   51600     854.5224   -25344.507   -26228.043    1274.6535    1013.0356    1189.7795    1621.1454    41.109095    41.109095    82.245845 
   51700    851.26929   -25337.994   -26218.166    1466.2192    1557.4601    1272.8157     1568.382    41.109095    41.109095    82.251825 
   51800    857.86318   -25331.508   -26218.498    1445.9358    1542.4234    1153.3146    1642.0694    41.109095    41.109095    82.258525 
   51900    853.52459   -25324.952   -26207.456    1742.6499    1579.7056    1733.0451     1915.199    41.109095    41.109095    82.265951 
   52000    855.97034   -25318.309   -26203.341    1842.3221    1538.5076    1730.6766    2257.7821    41.109095    41.109095    82.274148 
   52100    862.53827    -25311.69   -26203.513     1770.765    1590.3941    1942.6418    1779.2593    41.109095    41.109095    82.283179 
   52200    862.54836   -25304.999   -26196.833    1953.9367    2182.8755    1697.9901    1980.9446    41.109095    41.109095    82.292996 
   52300    868.04067   -25298.278    -26195.79    1890.9456    2126.5773    1246.7759    2299.4835    41.109095    41.109095    82.303616 
   52400     873.1514   -25291.577   -26194.374    1824.1907    1838.2822    1764.2328    1870.0571    41.109095    41.109095     82.31516 
   52500    877.81084   -25284.766   -26192.381    1818.2125    1954.4357     1687.419    1812.7828    41.109095    41.109095    82.327531 
   52600    881.05763   -25277.973   -26188.945    1906.5675    2016.7156    1642.4029    2060.5839    41.109095    41.109095    82.340756 
   52700    883.99056   -25271.125   -26185.128    1920.0516    1731.3134    1579.9103     2448.931    41.109095    41.109095     82.35488 
   52800    885.41899   -25264.261   -26179.741    2006.6657    1756.4842    2113.9536    2149.5592    41.109095    41.109095    82.369861 
   52900    892.63755   -25257.335    -26180.28    1870.4612    1910.0669    1844.9918    1856.3249    41.109095    41.109095    82.385654 
   53000    889.82892   -25250.431   -26170.471    1986.5808    2028.7459    1934.2832    1996.7133    41.109095    41.109095    82.402211 
   53100    895.13204   -25243.403   -26168.926    2011.4448     2147.829     2071.916    1814.5893    41.109095    41.109095     82.41952 
   53200    900.65025   -25236.438   -26167.667    1937.0445    2075.3004    1438.0028    2297.8304    41.109095    41.109095    82.437511 
   53300    895.61836   -25229.374     -26155.4     2176.761    2344.6007    2043.4665    2142.2159    41.109095    41.109095     82.45625 
   53400    909.73064   -25222.308   -26162.926     1883.437    2380.5177    1629.0756    1640.7178    41.109095    41.109095    82.475698 
   53500    909.16048   -25215.205   -26155.233    1994.1575    1696.8635    2037.1838    2248.4253    41.109095    41.109095    82.495731 
   53600    910.82142   -25208.059   -26149.805    1983.8222    2237.2629    1998.1964    1716.0073    41.109095    41.109095    82.516402 
   53700    907.92685   -25200.879   -26139.632    2016.6675    2357.9739    1585.4409    2106.5879    41.109095    41.109095     82.53763 
   53800    921.40287   -25193.682   -26146.368     1743.952     2387.963    1404.9943    1438.8988    41.109095    41.109095    82.559415 
   53900     919.4212   -25186.419   -26137.056    1890.0435    2181.6204    1816.6869    1671.8234    41.109095    41.109095    82.581688 
   54000    911.57423   -25179.186    -26121.71    2142.4531    2401.5422    2116.2779    1909.5391    41.109095    41.109095    82.604412 
   54100     931.4412   -25171.863   -26134.928    1660.8808    1849.7599    1625.4329    1507.4497    41.109095    41.109095    82.627614 
   54200    934.53804   -25164.537   -26130.804    1592.3573    1948.3263    1464.9496     1363.796    41.109095    41.109095    82.651185 
   54300    930.53714   -25157.127   -26119.258    1866.9278    2520.6283    1484.2544    1595.9007    41.109095    41.109095    82.674962 
   54400    928.78064   -25149.741   -26110.055     1883.886    2033.6843    2022.8729    1595.1009    41.109095    41.109095    82.698951 
   54500    935.94167   -25142.316   -26110.035    1710.8867    1825.4889    1965.1122    1342.0591    41.109095    41.109095    82.723155 
   54600    945.14457   -25134.813   -26112.047    1518.5089    1923.7889    1635.7079     996.0298    41.109095    41.109095    82.747432 
   54700    936.37087   -25127.298    -26095.46    1659.9058    1944.5735    1694.8312    1340.3125    41.109095    41.109095    82.771611 
[...]
  336300    796.08568   -25435.128   -26258.242   -204.26949   -553.15596     203.4976   -263.15009    41.107787    41.107787     82.24526 
  336400    801.00797   -25435.128   -26263.331   -12.720531   -69.964244    12.043649    19.759003    41.107693    41.107693    82.218488 
  336500      786.772   -25435.121   -26248.605    419.02722    61.387167    399.47216    796.22232    41.107493    41.107493    82.214394 
  336600    799.11908   -25435.131   -26261.382   -149.98958   -576.94824   -140.09948    267.07898    41.107257    41.107257    82.246158 
  336700    801.59458   -25435.131   -26263.941   -431.74003   -401.93156   -372.79252     -520.496    41.106933    41.106933    82.263686 
  336800    798.44232   -25435.132   -26260.683   -147.39237   -555.71053   -141.28378     254.8172    41.106438    41.106438    82.245343 
  336900    801.00115   -25435.135   -26263.332   -79.222786    423.79518   -315.00442   -346.45912    41.105827    41.105827    82.225632 
  337000    802.20642   -25435.133   -26264.576    157.87603   -281.29422    276.57964    478.34266     41.10531     41.10531    82.201837 
  337100    804.72897   -25435.137   -26267.188    8.8530554    358.42258   -414.99488    83.131465    41.104882    41.104882    82.219726 
  337200    803.78644    -25435.14   -26266.216   -234.65335   -344.51045   -601.05177    241.60218    41.104543    41.104543    82.246218 
  337300    802.30556   -25435.144   -26264.689   -519.06575   -609.57928   -550.51879   -397.09917    41.104062    41.104062     82.29239 
  337400    801.53796   -25435.141   -26263.892   -505.79716   -493.78557   -762.62532   -260.98059    41.103335    41.103335    82.296927 
  337500    799.83864   -25435.143   -26262.137   -335.14724    210.19505   -665.40884   -550.22793    41.102381    41.102381    82.275343 
  337600     805.3968   -25435.148   -26267.889   -82.751603    -118.1442   -345.90353    215.79292    41.101386    41.101386    82.239493 
  337700    793.83522   -25435.138   -26255.926      220.004    676.59141   -73.605202    57.025792    41.100461    41.100461     82.23599 
  337800    798.69315   -25435.146   -26260.956    61.045345   -515.90062    202.95572    496.08093    41.099715    41.099715    82.245339 
  337900    797.47352   -25435.153   -26259.702   -130.88985   -290.40131   -136.73913    34.470891    41.099026    41.099026    82.282799 
  338000    797.70888   -25435.146   -26259.938   -316.83321   -558.74509   -257.87706   -133.87748    41.098277    41.098277    82.303235 
  338100    802.51805   -25435.151   -26264.916   -339.62463   -494.35266   -473.80282   -50.718408    41.097376    41.097376     82.29262 
  338200    797.95319   -25435.149   -26260.194   -74.653246   -119.89157   -256.34431    152.27614    41.096367    41.096367    82.288994 
  338300    800.98336   -25435.151    -26263.33    -275.7329   -425.03066   -375.01636   -27.151679    41.095331    41.095331    82.290253 
  338400    788.06762   -25435.149   -26249.973    233.22447    453.37519    337.08313   -90.784929    41.094254    41.094254    82.274866 
  338500    797.80423    -25435.15   -26260.041    247.79517    178.84736    212.22125    352.31688    41.093379    41.093379    82.253687 
  338600    792.05739   -25435.151     -26254.1    294.37923    691.99587     320.3562   -129.21437    41.092708    41.092708    82.265852 
  338700     806.1642   -25435.153   -26268.688   -84.669377   -26.787597   -495.85172    268.63119    41.092272    41.092272    82.273197 
  338800    792.28601    -25435.15   -26254.336    254.65648    71.487521    169.44159    523.04034    41.091905    41.091905    82.279995 
  338900    801.05396   -25435.153   -26263.404    -85.34623   -12.085319   -328.19728    84.243913    41.091627    41.091627    82.287193 
  339000    807.01911   -25435.157   -26269.576   -111.07856   -565.54432    60.780133    171.52849    41.091391    41.091391    82.268644 
  339100    792.83733   -25435.152   -26254.908    400.65251     366.6045    371.47361    463.87942    41.091223    41.091223    82.257863 
  339200    801.97196   -25435.154   -26264.355    116.23767    71.213048    414.46024   -136.96029    41.091214    41.091214    82.261013 
  339300    801.30935   -25435.156   -26263.672    280.16719    828.15829    87.360842   -75.017565    41.091365    41.091365     82.24944 
  339400    797.56056   -25435.153   -26259.792    422.84351    94.849178    623.67692    550.00443    41.091724    41.091724    82.238878 
  339500    796.88569   -25435.153   -26259.095    287.14464    641.53612    508.75171    -288.8539    41.092247    41.092247    82.251962 
  339600    799.73446   -25435.157   -26262.044    328.12998    348.68964    701.66891   -65.968607    41.092985    41.092985    82.241127 
  339700    799.79419   -25435.161    -26262.11    273.67437    707.25214   -343.12907    456.90004     41.09387     41.09387    82.240895 
  339800    795.84363   -25435.155   -26258.019    191.96218    510.56203    146.96593   -81.641406    41.094836    41.094836    82.263139 
  339900    803.34247   -25435.166   -26265.783   -49.164446    627.92237   -181.52563   -593.89007    41.095833    41.095833    82.261507 
  340000    806.74884   -25435.174   -26269.313     269.7467    483.01105    166.10918    160.11987    41.096849    41.096849    82.215487 
  340100     800.7738   -25435.168   -26263.129    610.96468     1093.994     466.2566    272.64344    41.097982    41.097982    82.194833 
  340200    791.41635    -25435.17   -26253.456    751.45985    593.90019    748.30107    912.17828    41.099359    41.099359     82.19219 
  340300    800.13954   -25435.184    -26262.49    120.02027   -48.574593    344.32481    64.310584    41.100854    41.100854    82.230157 
  340400    802.39266   -25435.181   -26264.816   -265.95627    -169.1095   -270.59062    -358.1687    41.102239    41.102239    82.266678 
  340500    799.30689   -25435.183   -26261.628   -177.13625   -84.452696   -211.42064   -235.53542    41.103361    41.103361    82.254928 
  340600     798.1018   -25435.188   -26260.387    252.99498    149.95724     311.1135    297.91421    41.104306    41.104306    82.205692 
  340700    802.77282   -25435.185   -26265.214    424.87318    565.18396    271.45532    437.98026    41.105234    41.105234    82.171726 
  340800    796.30793     -25435.2   -26258.544     340.7576    312.87229    451.40136    257.99913    41.106263    41.106263     82.19611 
  340900    797.97891     -25435.2   -26260.272    -173.4514   -280.89283   -142.53532   -96.926056    41.107286    41.107286    82.253598 
  341000    788.07686    -25435.19   -26250.024   -194.93177   -3.9274715   -429.23683   -151.63102    41.108018    41.108018    82.291297 
  341100    809.32018   -25435.206   -26272.004   -693.90732   -296.00095   -1010.8686   -774.85242     41.10837     41.10837     82.27848 
  341200    803.72928   -25435.224   -26266.242     -42.7968    109.05747    268.15062   -505.59849    41.108395    41.108395    82.212017 
  341300     800.8697   -25435.206   -26263.267    550.91125    480.84948    745.54524    426.33902    41.108464    41.108464    82.145934 
  341400    796.42659   -25435.214   -26258.681    668.82232    50.012804     1162.592    793.86219    41.108803    41.108803    82.149643 
  341500    795.75844   -25435.209   -26257.985    70.350507    602.19518    184.13688   -575.28054     41.10937     41.10937    82.210395 
  341600    799.73214   -25435.211   -26262.096   -144.70048     320.1046   -360.51072   -393.69531    41.109948    41.109948    82.223167 
  341700    795.56841   -25435.212   -26257.792    82.009752    52.670202    10.459272    182.89978    41.110405    41.110405    82.206139 
  341800    803.06672   -25435.212   -26265.544     -27.1436   -135.89706    129.53268   -75.066422     41.11076     41.11076    82.196286 
  341900    794.77901    -25435.21   -26256.973    121.62993    299.62848    93.401631    -28.14032    41.111042    41.111042     82.20068 
  342000    798.49445   -25435.212   -26260.816    25.135194    -244.0777     272.9767    46.506576    41.111277    41.111277    82.206404 
  342100    790.10985   -25435.213   -26252.148    76.546393     209.0094    -179.3346    199.96438    41.111426    41.111426    82.214829 
  342200    794.75329   -25435.211   -26256.948   -60.807785    6.0005705    132.93837    -321.3623    41.111506    41.111506    82.222616 
  342300    800.55755   -25435.217   -26262.955    91.406506   -37.858614    443.51312   -131.43499    41.111558    41.111558    82.196496 
  342400    810.26339   -25435.218   -26272.991   -77.011511    -541.1555   -154.96655    465.08752    41.111627    41.111627    82.179669 
  342500    799.08995   -25435.216   -26261.436   -91.020493   -345.93409     156.5194   -83.646791    41.111613    41.111613    82.214173 
  342600    793.53287   -25435.215   -26255.689   -75.896206   -140.82467   -283.33175     196.4678      41.1115      41.1115    82.232926 
  342700     802.2008    -25435.22   -26264.657   -354.30558   -242.83888   -693.44387   -126.63399    41.111249    41.111249    82.237579 
  342800    796.31258   -25435.225   -26258.574    43.462723     121.9573    -103.7338    112.16467    41.110905    41.110905    82.209357 
  342900     803.7702   -25435.217   -26266.277    5.8440933     97.72606   -323.66629    243.47251    41.110574    41.110574    82.197186 
  343000    803.84506   -25435.229   -26266.366   -204.88198   -566.45222   -438.45784    390.26413    41.110194    41.110194    82.218123 
  343100    799.62154   -25435.218   -26261.988    -210.8752   -31.968733   -716.04392    115.38704    41.109736    41.109736    82.253029 
  343200    797.98935   -25435.224   -26260.306   -378.27837   -212.92051   -365.81837   -556.09623    41.109136    41.109136    82.253862 
  343300    801.77259   -25435.232   -26264.227   -112.89103    66.375932   -554.87391    149.82487    41.108499    41.108499    82.209079 
  343400    806.10224   -25435.229     -26268.7    107.02327    355.41465   -170.46389    136.11906    41.107913    41.107913    82.179431 
  343500    792.71141   -25435.224    -26254.85    347.78048    645.39886    92.197289    305.74527    41.107537    41.107537    82.187684 
  343600    801.49667   -25435.243   -26263.952   -98.691975   -145.88764   -314.80449    164.61621    41.107332    41.107332    82.235178 
  343700     797.8495   -25435.237   -26260.175   -492.85736   -695.86893   -564.94904   -217.75411    41.107024    41.107024     82.28617 
  343800    796.87423   -25435.235   -26259.165   -518.20328   -138.70163   -873.05299   -542.85523    41.106397    41.106397    82.296699 
  343900    803.46619   -25435.252   -26265.998   -388.09612    -203.1164   -489.39683   -471.77514    41.105523    41.105523    82.259071 
  344000    792.55967   -25435.244   -26254.712    418.93752    697.03653     72.03371    487.74233    41.104605    41.104605    82.203024 
  344100     803.9297   -25435.244   -26266.469    257.00394    311.81657    9.5253834    449.66987    41.103931    41.103931    82.182178 
  344200    800.43768   -25435.262   -26262.876    50.600472   -11.056313   -12.852761    175.71049    41.103504    41.103504    82.219317 
  344300    792.10186   -25435.261   -26254.256   -191.33945    -254.2408   -601.36236    281.58482     41.10311     41.10311    82.280677 
  344400    797.48054   -25435.253    -26259.81   -672.27121   -494.57918    -1059.021   -463.21347    41.102442    41.102442    82.319258 
  344500    798.56293   -25435.265   -26260.941   -496.96695   -641.94328   -437.78795   -411.16963    41.101402    41.101402    82.305864 
  344600     790.1928   -25435.287   -26252.308    293.10504    208.81267    271.20481    399.29763    41.100225    41.100225    82.233907 
  344700     798.0474   -25435.272   -26260.415    683.33161    1162.3751    474.65292    412.96682    41.099266    41.099266    82.170953 
  344800    807.67918   -25435.278   -26270.379    506.63538    654.90954  -0.63337273    865.62996    41.098858    41.098858     82.16873 
  344900    800.19454   -25435.282   -26262.645    247.75448    572.72589    129.86572     40.67182    41.098875    41.098875    82.225878 
  345000    794.44017   -25435.291   -26256.704   -163.64463   -61.557218   -470.11756    40.740872    41.099069    41.099069    82.286533 
  345100    802.42346   -25435.279   -26264.946   -605.93244   -926.02187   -416.17431   -475.60114    41.099093    41.099093    82.308091 
  345200    795.84603   -25435.296   -26258.163   -34.236058    159.97468    300.41804   -563.10089    41.098869    41.098869    82.267001 
  345300      797.995   -25435.299   -26260.387    431.43981    695.91264    297.78745    300.61935    41.098702    41.098702    82.196943 
  345400    794.60801   -25435.286   -26256.873    833.77974    819.12364    637.41643    1044.7991    41.098797    41.098797    82.161229 
  345500    798.50712    -25435.32   -26260.938     249.6942    350.05015    331.22517     67.80728    41.099217    41.099217    82.214977 
  345600    802.99357   -25435.308   -26265.565   -379.51911   -170.45902   -255.02202   -713.07629     41.09973     41.09973    82.279719 
  345700    799.86108     -25435.3   -26262.318   -372.44942   -139.62008   -612.13669    -365.5915    41.100083    41.100083    82.281748 
  345800    790.31281   -25435.314   -26252.459    232.98591    364.90987    259.42496    74.622906    41.100204    41.100204    82.234027 
  345900    801.31454   -25435.304   -26263.824    294.44234   -35.712988    658.84835    260.19166    41.100374    41.100374     82.20251 
  346000    795.58107   -25435.313   -26257.906    320.14492     317.3333    283.66988    359.43157    41.100642    41.100642    82.221073 
  346100    801.03867   -25435.332   -26263.568   -464.97052   -706.89169   -374.44977   -313.57009    41.100908    41.100908    82.286672 
  346200    799.73334    -25435.31   -26262.195   -603.92283   -820.51955   -436.67473    -554.5742    41.100954    41.100954    82.315515 
  346300    801.08191   -25435.345   -26263.626   -204.94868   -249.11365    -300.2862   -65.446189    41.100671    41.100671    82.256604 
  346400    805.34586   -25435.327   -26268.016    239.66958    681.25644    74.810031    -37.05774     41.10031     41.10031    82.201588 
  346500     805.7833   -25435.326   -26268.467    280.05627    185.04295    272.41454    382.71132    41.100153    41.100153    82.187762 
  346600    797.21215   -25435.339   -26259.618    69.188205   -172.30115    448.77572   -68.909962    41.100187    41.100187    82.238731 
  346700    791.71378   -25435.327   -26253.921    -287.4156   -218.20516   -281.82218   -362.21947    41.100238    41.100238    82.286394 
  346800    799.40617   -25435.332    -26261.88   -314.11918   -124.01344   -678.52471   -139.81939    41.100152    41.100152    82.281985 
  346900    808.95698   -25435.344   -26271.767    -215.3723   -378.42629   -132.17663   -135.51398    41.099935    41.099935    82.238779 
  347000    797.28231   -25435.333   -26259.684    289.99077   -51.236842     147.5916    773.61756     41.09973     41.09973    82.214251 
  347100    795.21601   -25435.339   -26257.554    106.03151   -252.31326    -39.20566    609.61346    41.099628    41.099628    82.243771 
  347200    799.78952   -25435.346    -26262.29   -417.20787    -604.1796   -418.45803   -228.98597     41.09944     41.09944    82.300261 
  347300    795.13117   -25435.338   -26257.466   -429.99239   -751.54721   -57.902283   -480.52766    41.098977    41.098977    82.321465 
  347400    801.74427   -25435.358   -26264.323   -292.82538   -151.63587    75.457669   -802.29795    41.098301    41.098301    82.283754 
  347500      798.413   -25435.366   -26260.886     436.6588    672.92889    247.71406    389.33346    41.097718    41.097718    82.203337 
  347600    797.84894   -25435.356   -26260.293    731.24419    573.98044    699.20579    920.54634    41.097501    41.097501    82.171644 
  347700    792.50023   -25435.375   -26254.782    552.28889     290.1488    601.76546    764.95241     41.09767     41.09767    82.220794 
  347800    783.30128   -25435.387   -26245.283   -60.647539   -15.241288   -81.864857    -84.83647    41.097876    41.097876    82.312155 
  347900    800.74781   -25435.371   -26263.306   -826.42927   -675.10613   -947.14814   -857.03352    41.097813    41.097813    82.350019 
  348000    802.00215   -25435.416   -26264.648   -436.21366   -811.44528   -228.70516   -268.49054    41.097364    41.097364    82.286334 
  348100    806.65675   -25435.413   -26269.457    338.77664    33.799954    697.72743    284.80254    41.096844    41.096844    82.201383 
  348200    792.61705   -25435.386   -26254.914    899.37489    751.29544    1142.6459     804.1833    41.096673    41.096673    82.171361 
  348300    807.63495   -25435.421   -26270.477    136.81203   -396.16342    599.02951    207.56999    41.096957    41.096957    82.221651 
  348400    806.21209   -25435.405    -26268.99   -346.15718   -322.82005   -443.18747   -272.46403    41.097389    41.097389    82.279477 
  348500     799.8732   -25435.402   -26262.433   -269.89157   -360.02371    214.91799   -664.56901    41.097723    41.097723    82.284109 
  348600    800.76297   -25435.422   -26263.372    243.35537    264.43177    526.91874   -61.284399    41.098028    41.098028    82.227881 
  348700    801.23341   -25435.413   -26263.849    586.31427     502.4748    1024.8579    231.61007    41.098518    41.098518    82.174651 
  348800    808.36901    -25435.42   -26271.235    465.12865    -103.4945    1060.5862    438.29429    41.099366    41.099366    82.170449 
  348900     801.1883   -25435.439    -26263.83    68.628932   -272.78846    577.88503   -99.209766    41.100445    41.100445    82.226601 
  349000    802.51598   -25435.422   -26265.185   -469.76081   -595.12437   -149.42114   -664.73691    41.101457    41.101457    82.282215 
  349100    799.15851   -25435.425   -26261.716   -336.42328   -41.150479   -267.27521   -700.84415    41.102176    41.102176    82.276232 
  349200    794.12071   -25435.444   -26256.527    408.71231    529.76991    537.73548    158.63153    41.102705    41.102705    82.210022 
  349300     798.7847   -25435.429   -26261.334    646.30901    869.57271    420.02744    649.32688    41.103301    41.103301    82.160702 
  349400    798.51337   -25435.444   -26261.068     294.8616    491.55828    408.25569   -15.229174    41.104112    41.104112    82.181505 
  349500    796.67925   -25435.439   -26259.167   -24.742194   -78.296073    243.50734   -239.43784    41.105044    41.105044    82.228378 
  349600    792.44512   -25435.432   -26254.783   -40.975553   -207.16446    190.84156   -106.60376    41.105849    41.105849    82.244674 
  349700     798.5039   -25435.439   -26261.053   -107.30402    142.01874   -550.18455    86.253765    41.106476    41.106476    82.229346 
  349800    801.08666   -25435.443   -26263.728    255.59331   -26.379703    282.99435    510.16527    41.106967    41.106967    82.196581 
  349900    806.43894   -25435.446   -26269.265   0.66555744    67.062797    155.26767    -220.3338    41.107471    41.107471    82.198602 
  350000    805.67554   -25435.442   -26268.472   -88.386956    142.09116   -12.260346   -394.99168     41.10806     41.10806    82.209025 
Loop time of 5887.65 on 1 procs for 200000 steps with 8000 atoms

Pair  time (%) = 5335.8 (90.6271)
Neigh time (%) = 396.429 (6.73323)
Comm  time (%) = 32.15 (0.546058)
Outpt time (%) = 2.50569 (0.0425585)
Other time (%) = 120.759 (2.05106)

Nlocal:    8000 ave 8000 max 8000 min
Histogram: 1 0 0 0 0 0 0 0 0 0
Nghost:    9064 ave 9064 max 9064 min
Histogram: 1 0 0 0 0 0 0 0 0 0
Neighs:    300484 ave 300484 max 300484 min
Histogram: 1 0 0 0 0 0 0 0 0 0

Total # of neighbors = 300484
Ave neighs/atom = 37.5605
Neighbor list builds = 20000
Dangerous builds = 0
unfix		4
