LAMMPS (13 Jan 2014)
dimension       3
boundary        p p p
units           metal

atom_style	atomic
neighbor	0.3 bin
neigh_modify	every 10 delay 0 check no

# Number of steps for the equilibration steps
variable        eqsteps equal 50000

# Number of steps to run our NPH simulation
variable        simsteps equal 200000

# Our trial melting temperature
variable	T equal 1400.0
variable	T2 equal 2*${T}
variable	T2 equal 2*1400

# Some high temperature to melt the crystal
variable	Tmelt equal 2000.0

#System size
variable	nx equal 10
variable	ny equal 10
variable	nz equal 20
variable	nzhalf equal ${nz}*0.5
variable	nzhalf equal 20*0.5
variable	a equal 4.050
variable	length equal ${nz}*${a}
variable	length equal 20*${a}
variable	length equal 20*4.05

lattice		fcc ${a}
lattice		fcc 4.05
Lattice spacing in x,y,z = 4.05 4.05 4.05

region         box block 0 ${nx} 0 ${ny} 0 ${nz}
region         box block 0 10 0 ${ny} 0 ${nz}
region         box block 0 10 0 10 0 ${nz}
region         box block 0 10 0 10 0 20
create_box     1 box
Created orthogonal box = (0 0 0) to (40.5 40.5 81)
  1 by 1 by 1 MPI processor grid
create_atoms   1 box
Created 8000 atoms

mass		1 26.9815

pair_style	eam/alloy
pair_coeff	* * Al_potential.alloy Al

velocity	all create ${T2} 1337
velocity	all create 2800 1337

# Create a dump file. This can be visualized with
# e.g. OVITO (http://www.ovito.org/)
dump		id all atom 1000 atomsdump

# 1 fs timestep
timestep	0.001
thermo_style	custom step temp etotal pe press pxx pyy pzz lx ly lz

# output every 100th timestep
thermo		100

# Equilibration the whole system to the trial melting temperature
fix		1 all npt temp ${T} ${T} 1 iso 0 0 3 drag 1.0
fix		1 all npt temp 1400 ${T} 1 iso 0 0 3 drag 1.0
fix		1 all npt temp 1400 1400 1 iso 0 0 3 drag 1.0
run		${eqsteps}
run		50000
Memory usage per processor = 5.95314 Mbytes
Step Temp TotEng PotEng Press Pxx Pyy Pzz Lx Ly Lz 
       0         2800   -24282.186   -27177.252    19210.871     18999.36    18977.481    19655.773         40.5         40.5           81 
     100    1295.8653   -24314.047    -25653.91    49094.979    49500.461    49411.525    48372.951    40.592116    40.592116    81.184232 
     200    1295.7666   -24371.301   -25711.062    35507.973    36399.355    35472.421    34652.142    40.818195    40.818195     81.63639 
     300    1261.2224   -24405.018   -25709.062    25527.549    26364.037    25000.072    25218.539    41.012345    41.012345     82.02469 
     400     1262.307   -24421.326   -25726.491    17416.043    17651.672     16720.49    17875.968    41.167138    41.167138    82.334275 
     500    1246.2884   -24427.891   -25716.493    10933.735    11392.163    10626.416    10782.626    41.302711    41.302711    82.605422 
     600    1219.2211   -24427.803   -25688.419    6669.7972    7176.6915    6647.4578    6185.2422    41.413215    41.413215     82.82643 
     700    1222.4387   -24423.882   -25687.825    2743.1938    2728.3993    2821.7405    2679.4416    41.496498    41.496498    82.992997 
     800    1201.9516   -24418.219    -25660.98    670.25593    733.55898    1132.5727    144.63617    41.555528    41.555528    83.111056 
     900    1206.8245     -24411.9   -25659.699   -817.06926   -123.74646   -1820.9372   -506.52408    41.594721    41.594721    83.189442 
    1000    1187.2802   -24405.414   -25633.005   -1299.1078   -1045.5078   -1406.6796   -1445.1361    41.617629    41.617629    83.235259 
    1100    1197.6575   -24398.854   -25637.174    -1956.132   -1407.8302    -2340.257   -2120.3087     41.62769     41.62769     83.25538 
    1200    1199.3741   -24392.253   -25632.348   -1759.9309   -1548.1321   -1937.8144    -1793.846    41.627646    41.627646    83.255291 
    1300    1205.6123   -24385.559   -25632.104   -1305.4181    -1397.302   -1263.6524      -1255.3    41.620967    41.620967    83.241934 
    1400    1224.6029   -24378.868   -25645.049   -1218.1736   -1123.3569    -1436.987   -1094.1769    41.610682    41.610682    83.221365 
    1500    1226.3593   -24372.117   -25640.114   -369.26396   -497.32862   -616.88158    6.4183214    41.599166    41.599166    83.198332 
    1600    1203.5723   -24365.454    -25609.89    706.54885    363.48599    1278.6852    477.47535    41.588786    41.588786    83.177573 
    1700    1222.4071   -24358.703   -25622.613    889.23952    619.66728    736.89544    1311.1558    41.582036    41.582036    83.164072 
    1800    1237.7718   -24351.992   -25631.788    733.64514    1728.2112   -556.63074    1029.3549    41.579185    41.579185    83.158371 
    1900    1219.1184   -24345.511   -25606.021     1451.137    1453.8967    842.32568    2057.1887    41.580149    41.580149    83.160298 
    2000    1245.2594   -24338.996   -25626.535    699.01756    352.32766    511.99467    1232.7304    41.585779    41.585779    83.171559 
    2100    1224.7296   -24332.571   -25598.883    1154.9134    1370.2653    1133.8288    960.64608     41.59387     41.59387     83.18774 
    2200    1233.0492   -24326.163   -25601.077     723.6747    970.08205    901.67448    299.26757    41.604664    41.604664    83.209328 
    2300    1223.9701   -24319.699   -25585.225    507.15034     27.43707    721.62697    772.38697    41.616785    41.616785    83.233569 
    2400    1237.9333   -24313.193   -25593.157   -219.52766   -295.04945  -0.19488987   -363.33864    41.628501    41.628501    83.257003 
    2500    1238.5703   -24306.725   -25587.347   -362.03681   -727.22774    113.94386   -472.82655    41.637691    41.637691    83.275383 
    2600    1247.3381   -24300.375   -25590.062   -792.00387   -406.77487   -525.82222   -1443.4145    41.643705    41.643705    83.287411 
    2700     1244.303   -24294.055   -25580.604   -670.22843    61.602121   -872.02929   -1200.2581     41.64636     41.64636     83.29272 
    2800    1237.4448   -24287.784   -25567.242    16.560683   -662.95524    337.56252    375.07477    41.646304    41.646304    83.292609 
    2900    1248.8488   -24281.528   -25572.777   -297.49463   -152.23498   -283.06506   -457.18386     41.64499     41.64499     83.28998 
    3000    1246.0349   -24275.289   -25563.629    140.58077    529.09342   -22.205849   -85.145276    41.642933    41.642933    83.285865 
    3100    1249.1946   -24269.148   -25560.755    387.20972    302.84394    815.46139    43.323836    41.640862    41.640862    83.281723 
    3200     1248.802   -24263.075   -25554.276    602.96856    647.96903    243.01413    917.92252    41.640036    41.640036    83.280072 
    3300    1256.6247   -24256.988   -25556.278       513.04    1096.9794    321.42263    120.71802    41.641158    41.641158    83.282316 
    3400    1258.0495   -24251.008   -25551.771    711.36125    1287.3101    319.80865    526.96496    41.644298    41.644298    83.288596 
    3500    1259.7328   -24245.075   -25547.578     509.2252    323.88675    405.36933    798.41952    41.649348    41.649348    83.298695 
    3600    1268.0911   -24239.214    -25550.36    39.693704    190.67755     167.9065   -239.50294    41.655838    41.655838    83.311675 
    3700    1268.3107   -24233.355   -25544.728    184.35365   -34.057391    114.59791    472.52042    41.663005    41.663005    83.326009 
    3800    1261.5706   -24227.476   -25531.879    4.1550345   -172.05774    391.66293   -207.14009    41.670477    41.670477    83.340954 
    3900    1259.9718   -24221.654   -25524.404    56.784236    484.90563   -23.456384   -291.09654    41.676703    41.676703    83.353407 
    4000    1283.6541   -24215.845   -25543.082     -662.391   -850.54711    -686.4684    -450.1575    41.681847    41.681847    83.363695 
    4100    1275.9766   -24210.095   -25529.394   -549.30708   -456.08899   -1469.4725    277.64022     41.68542     41.68542     83.37084 
    4200    1267.0876   -24204.399   -25514.506   -202.59353   -330.48671   -578.08747     300.7936    41.687148    41.687148    83.374295 
    4300    1270.3844   -24198.776   -25512.292   -27.618349   -32.125952    437.18179   -487.91088    41.687316    41.687316    83.374632 
    4400    1279.1224   -24193.191   -25515.742   -141.59602   -261.59709     -110.562   -52.628976    41.686847    41.686847    83.373694 
    4500    1259.8785   -24187.626    -25490.28    737.05166    210.74386    1377.9348     622.4763    41.686244    41.686244    83.372487 
    4600     1285.944   -24182.068   -25511.673    55.880978    130.50743    592.92096   -555.78546    41.687373    41.687373    83.374746 
    4700    1280.6022   -24176.527   -25500.608    245.39443   -5.0456546    600.28154     140.9474    41.689738    41.689738    83.379477 
    4800    1273.2285   -24171.048   -25487.505    395.46106    78.223976    841.24016    266.91903    41.693443    41.693443    83.386886 
    4900    1260.1311   -24165.565    -25468.48    696.86366     395.5063    593.08681    1101.9979    41.699017    41.699017    83.398034 
    5000    1293.4554   -24159.962   -25497.333   -358.19528   -594.42159   -489.38759    9.2233288    41.706149    41.706149    83.412298 
    5100     1284.973   -24154.447   -25483.047   -273.01225   -441.59941    387.97269   -765.41003    41.712855    41.712855    83.425711 
    5200    1277.6693   -24148.971    -25470.02    117.07058   -178.15526    255.34632     274.0207    41.719001    41.719001    83.438001 
    5300    1298.8281   -24143.464    -25486.39   -703.52062   -1152.7643     -517.134   -440.66359    41.725158    41.725158    83.450316 
    5400    1277.7033   -24138.057   -25459.141     -88.9245   -1176.4708    689.66959    220.02767    41.729578    41.729578    83.459156 
    5500    1279.9073   -24132.725   -25456.087   -196.91071   -264.67331   -497.38573     171.3269    41.732791    41.732791    83.465583 
    5600    1292.5287   -24127.291   -25463.704   -403.58374   -845.20952    -377.1173    11.575598    41.735282    41.735282    83.470565 
    5700    1273.6939   -24121.921    -25438.86    99.006906   -107.85813    192.36058    212.51827    41.736669    41.736669    83.473339 
    5800    1279.1701   -24116.592   -25439.193    74.718158    617.32782   -608.62785     215.4545    41.737308    41.737308    83.474615 
    5900    1292.2241    -24111.21   -25447.307   -234.63717    333.46927   -94.557422   -942.82336    41.738216    41.738216    83.476433 
    6000    1281.3355   -24105.919   -25430.759     339.5627   -1.8662228    809.60168    210.95266    41.739065    41.739065    83.478131 
    6100    1265.8317   -24100.625   -25409.434    750.02299    221.61275    718.61164    1309.8446     41.74089     41.74089    83.481781 
    6200    1281.3084   -24095.308    -25420.12    323.70452    896.69233    550.19587   -475.77463    41.743734    41.743734    83.487468 
    6300    1282.9222   -24090.004   -25416.484    225.84538   -209.51475    280.51801    606.53287     41.74731     41.74731     83.49462 
    6400    1297.4878   -24084.829   -25426.369    63.795327   -285.24739    300.98276    175.65062    41.751242    41.751242    83.502483 
    6500    1293.8228   -24079.732   -25417.482   -53.474409   -306.29743   -1028.4202    1174.2944    41.755617    41.755617    83.511234 
    6600     1280.548   -24074.629   -25398.654    339.84127    630.16526   -202.61871    591.97726    41.760248    41.760248    83.520496 
    6700    1303.2716   -24069.524   -25417.044   -148.58503    -309.7283   -300.58599    164.55921     41.76495     41.76495    83.529899 
    6800    1290.3529   -24064.467    -25398.63    9.7870625    12.358003    910.07947   -893.07628    41.769049    41.769049    83.538099 
    6900    1287.3345   -24059.425   -25390.467    123.63563    272.74708    268.86671   -170.70691    41.773049    41.773049    83.546099 
    7000    1278.3681   -24054.278   -25376.049    364.13922    698.72257    704.69015   -310.99505    41.777185    41.777185    83.554371 
    7100     1271.213   -24049.049   -25363.423    496.10639    939.03175    604.23509   -54.947676    41.782181    41.782181    83.564363 
    7200    1267.3864   -24043.774   -25354.191     396.4364    735.49403   -365.90125    819.71641    41.787962    41.787962    83.575924 
    7300    1281.4677   -24038.382   -25363.358    58.819371    105.57957    43.232739    27.645801     41.79466     41.79466     83.58932 
    7400    1270.0642   -24032.996   -25346.181    316.41367     102.1632    464.09277    382.98504    41.801452    41.801452    83.602904 
    7500    1272.8405   -24027.565   -25343.621    -104.7673   -243.51486    -267.1306    196.34358    41.809084    41.809084    83.618168 
    7600    1264.8821   -24021.949   -25329.776   -121.27378   -17.770197    129.07121   -475.12235    41.817012    41.817012    83.634023 
    7700    1249.1944   -24016.293     -25307.9   -52.538462   -717.34431    1474.0362   -914.30726    41.824331    41.824331    83.648662 
    7800    1255.2992   -24010.592   -25308.511   -58.723404   -279.73802    181.53563   -77.967819    41.830245    41.830245     83.66049 
    7900    1243.0599    -24004.89   -25290.154     42.79102   -282.52265    113.11731     297.7784    41.835405    41.835405     83.67081 
    8000    1251.1653   -23999.012   -25292.657   -5.7799895    433.05051    142.84356   -593.23404    41.840276    41.840276    83.680552 
    8100    1250.3192   -23993.072   -25285.842    100.33076   -223.17787    306.29974     217.8704    41.844878    41.844878    83.689756 
    8200    1245.1079   -23987.139   -25274.521    317.59365   -190.40866    745.28686    397.90276    41.849447    41.849447    83.698894 
    8300    1238.2053   -23981.181   -25261.426    85.754876    408.66873    -327.7605     176.3564    41.854136    41.854136    83.708273 
    8400    1246.2272   -23975.114   -25263.653    61.836102    265.80238   -592.56818     512.2741    41.859144    41.859144    83.718288 
    8500    1220.7746   -23969.003   -25231.225    555.99188    403.45216    648.86398    615.65949    41.865018    41.865018    83.730037 
    8600    1227.4039   -23962.711   -25231.787    477.48738    453.10136    680.31896    299.04181    41.872511    41.872511    83.745022 
    8700    1233.9416   -23956.379   -25232.216   -30.229318   -217.78242    37.443184    89.651283    41.881021    41.881021    83.762041 
    8800    1223.6414   -23950.027   -25215.213    43.676313     632.3101   -288.75479   -212.52637    41.889214    41.889214    83.778429 
    8900    1217.9719   -23943.568   -25202.892   -25.864938   -643.45455    1031.4531   -465.59333     41.89744     41.89744     83.79488 
    9000    1209.3049   -23937.008   -25187.371    257.37943    -55.51999    752.64698    75.011308    41.905183    41.905183    83.810366 
    9100    1213.6242   -23930.385   -25185.214    88.253341   -376.69367    463.90301    177.55069    41.912628    41.912628    83.825255 
    9200    1204.3028   -23923.658   -25168.849    77.197206   -99.869007    834.04929   -502.58866     41.92033     41.92033    83.840661 
    9300    1206.0294   -23916.763   -25163.739   -88.814778   -89.636954   -49.598786   -127.20859    41.928049    41.928049    83.856098 
    9400    1194.0485   -23909.919   -25144.508    222.99705    811.02641   -20.003033   -122.03222     41.93503     41.93503    83.870061 
    9500    1191.0458   -23902.979   -25134.463    8.6645884   -571.76653   -843.13667     1440.897    41.942269    41.942269    83.884539 
    9600    1183.7377   -23895.966   -25119.894    257.48707    670.68963    55.918724    45.852855    41.949773    41.949773    83.899547 
    9700    1192.8071   -23888.787   -25122.092        27.13    437.35774   -361.72261    5.7548667    41.957799    41.957799    83.915598 
    9800    1178.5713   -23881.709   -25100.295    159.13679    561.31288     71.14537   -155.04788    41.965277    41.965277    83.930555 
    9900    1165.8748   -23874.529   -25079.988    610.63436    31.974122    943.11575    856.81322    41.972552    41.972552    83.945103 
   10000    1173.0227   -23867.239   -25080.088    196.12981    945.41873   -251.92739   -105.10191    41.980671    41.980671    83.961341 
   10100    1165.2022   -23859.896   -25064.659    369.62677    57.353689    242.92849    808.59813    41.989048    41.989048    83.978096 
   10200    1168.2435   -23852.507   -25060.415    82.852025    356.03209    250.41341   -357.88942    41.997282    41.997282    83.994563 
   10300    1190.9849   -23845.086   -25076.507   -812.23103   -752.17394   -1497.0658   -187.45339    42.004655    42.004655     84.00931 
   10400    1167.8791   -23837.678   -25045.208    59.873924     448.3849    88.491256   -357.25439    42.010297    42.010297    84.020594 
   10500    1162.3345   -23830.207   -25032.005    115.45506    873.14974   -197.27905    -329.5055     42.01551     42.01551     84.03102 
   10600    1159.8115   -23822.743   -25021.933    205.53993    508.27484    211.91679   -103.57184    42.019885    42.019885     84.03977 
   10700    1168.8106   -23815.261   -25023.755    26.253222   -117.68353    540.62322   -344.18003    42.024126    42.024126    84.048252 
   10800    1178.0925   -23807.736   -25025.827    45.135264    958.45711    700.51097   -1523.5623    42.028142    42.028142    84.056284 
   10900    1177.9712   -23800.292   -25018.258    139.08559    510.35142    88.429622   -181.52426    42.031654    42.031654    84.063307 
   11000    1175.6405   -23792.891   -25008.447     29.52684      -1323.3    938.52618    473.35434    42.034834    42.034834    84.069668 
   11100    1184.7159   -23785.476   -25010.416   -128.97355   -239.67123   -202.93397     55.68455    42.037197    42.037197    84.074394 
   11200    1191.2985   -23778.151   -25009.897    106.09335    456.39838    171.69474   -309.81306    42.038552    42.038552    84.077104 
   11300     1180.698   -23770.882   -24991.667    481.07551    601.86925   -48.569587    889.92686    42.040426    42.040426    84.080852 
   11400    1197.1231   -23763.635   -25001.402    287.08761   -415.58685    26.334491    1250.5152    42.044005    42.044005    84.088009 
   11500    1214.2607   -23756.352   -25011.839   -15.997529   -349.79563    545.79325   -243.99021    42.049075    42.049075    84.098149 
   11600    1199.6422    -23749.21   -24989.582    195.25893     197.1212    230.44454    158.21103    42.054571    42.054571    84.109141 
   11700    1208.0079   -23742.152   -24991.175   -245.24534    260.66282    119.03749   -1115.4363    42.059709    42.059709    84.119419 
   11800    1216.9904   -23735.141   -24993.451   -337.78426    -491.9759    239.61364   -760.99051    42.064583    42.064583    84.129165 
   11900     1203.555   -23728.075   -24972.493    105.92006   -999.68497    1276.5654    40.879755      42.0689      42.0689    84.137799 
   12000    1208.2918   -23721.044    -24970.36    88.221526   -1000.9832    1541.3855    -275.7378    42.073342    42.073342    84.146684 
   12100     1211.294   -23714.065   -24966.485     176.4787   -352.06114    132.49456     749.0027    42.077731    42.077731    84.155461 
   12200    1217.9952   -23707.149   -24966.497   -28.080966    23.589454    753.33031   -861.16266    42.081912    42.081912    84.163824 
   12300    1223.6942   -23700.346   -24965.586   -325.76845   -700.89963   -136.75692   -139.64878    42.085725    42.085725    84.171449 
   12400    1226.3665   -23693.581   -24961.585   -265.70274   -509.86971    254.19346   -541.43197    42.088854    42.088854    84.177709 
   12500    1225.9407   -23686.844   -24954.408    12.820677   -896.44342    1037.0627   -102.15723    42.091488    42.091488    84.182977 
   12600    1229.0916   -23680.162   -24950.984    185.85981    -143.0988    315.17371    385.50454    42.093701    42.093701    84.187403 
   12700    1229.9419   -23673.519    -24945.22    137.19397    21.171539   -447.77385    838.18422     42.09638     42.09638     84.19276 
   12800    1232.7077   -23666.879   -24941.439    262.73044    78.574037    297.98483    411.63246    42.099708    42.099708    84.199417 
   12900    1240.3748   -23660.356   -24942.844    38.217882    198.40199    456.69905   -540.44739    42.103197    42.103197    84.206393 
   13000    1234.8636    -23653.91     -24930.7    297.60162    995.39541   -391.00573    288.41519    42.106858    42.106858    84.213716 
   13100    1245.3226   -23647.454   -24935.058   -234.09403   -850.78959   -582.67849    731.18598    42.110819    42.110819    84.221638 
   13200    1240.5713   -23641.094   -24923.785    106.19849      505.588    447.38328   -634.37579    42.114011    42.114011    84.228022 
   13300    1249.7612   -23634.762   -24926.955   -344.02406   -847.84662    228.18545     -412.411    42.117209    42.117209    84.234418 
   13400    1246.4463   -23628.498   -24917.264   -20.371597   -225.88654    420.25245   -255.48069    42.119513    42.119513    84.239026 
   13500    1245.0207   -23622.336   -24909.627     526.6879     1369.571    13.468072    197.02463    42.121688    42.121688    84.243375 
   13600    1247.5766   -23616.187   -24906.122    332.09141    432.90769    601.73134   -38.364782    42.125211    42.125211    84.250423 
   13700    1258.1731   -23609.978   -24910.869   -108.75449   -458.17786    71.073483     60.84091    42.129704    42.129704    84.259408 
   13800    1248.9884   -23603.893   -24895.287    303.31719    646.65663    965.76965   -702.47471    42.134212    42.134212    84.268424 
   13900    1254.5109   -23597.884   -24894.988     215.1983   -621.42055    634.84106    632.17439    42.139251    42.139251    84.278503 
   14000    1260.0065   -23591.823   -24894.609   -144.06471    312.76945   -308.04583   -436.91776    42.144707    42.144707    84.289414 
   14100    1274.9726   -23585.922   -24904.182   -529.57523    -305.6838   -1731.2649    448.22302    42.149262    42.149262    84.298523 
   14200    1268.0516   -23580.113   -24891.218   -313.65673   -121.58927   -509.01189   -310.36902    42.151901    42.151901    84.303802 
   14300    1272.5626    -23574.46   -24890.229     152.3092    869.92986   -182.96946   -230.03281    42.152627    42.152627    84.305254 
   14400    1274.7816   -23568.796   -24886.858   -142.67026    1082.7185   -658.99152   -851.73781    42.153283    42.153283    84.306565 
   14500    1273.8634   -23563.151   -24880.264    27.386134   -616.45841    693.45844    5.1583646    42.153651    42.153651    84.307302 
   14600     1260.765   -23557.531   -24861.102    761.58184    192.69723    1430.7794    661.26888    42.154845    42.154845     84.30969 
   14700    1285.3458   -23551.823   -24880.809   -108.63638    -552.7261    -401.6504    628.46737    42.158192    42.158192    84.316385 
   14800    1271.6415   -23546.269   -24861.085    506.38389   -266.36456    601.05103    1184.4652    42.161666    42.161666    84.323331 
   14900    1279.2802   -23540.853   -24863.567    211.40621      -686.37    260.19803    1060.3906    42.166206    42.166206    84.332411 
   15000    1281.0316   -23535.387   -24859.912    38.256134    522.12339    130.45789   -537.81288    42.172036    42.172036    84.344071 
   15100    1289.3072   -23529.918   -24862.999    34.533732   -537.08859    364.26748    276.42231    42.178117    42.178117    84.356234 
   15200    1277.8423   -23524.555   -24845.783    235.59883    308.25255    209.40641    189.13753     42.18451     42.18451     84.36902 
   15300    1282.9303   -23519.224   -24845.713   -240.43389   -1050.6144   -355.41115    684.72392    42.191332    42.191332    84.382664 
   15400     1273.632   -23513.937   -24830.811   -253.09952   -1018.3293   -1349.7539    1608.7847    42.196325    42.196325    84.392651 
   15500    1282.1304   -23508.708   -24834.369   -435.53561    -239.7264    -936.9719   -129.90852    42.198684    42.198684    84.397368 
   15600    1282.4024   -23503.496   -24829.438    134.86248   -642.24584    454.18266    592.65062    42.198406    42.198406    84.396812 
   15700    1303.2845   -23498.298   -24845.832     -154.859   -811.33501   -491.23766    837.99568    42.197757    42.197757    84.395513 
   15800    1298.2064   -23493.211   -24835.494    405.30489    654.17362    783.38016    -221.6391    42.196752    42.196752    84.393503 
   15900    1290.1787   -23488.192   -24822.175    493.57595   -98.195555    443.11094    1135.8125    42.197043    42.197043    84.394085 
   16000    1283.1271   -23483.238    -24809.93    989.27322    98.585607    2322.4792     546.7548    42.198204    42.198204    84.396408 
   16100    1312.1857   -23478.294   -24835.031   -213.67449    11.037256   -585.49317   -66.567552    42.201298    42.201298    84.402595 
   16200    1307.1476   -23473.439   -24824.966   -43.703016   -353.08845    320.34115   -98.361749    42.204744    42.204744    84.409488 
   16300    1305.7535   -23468.634    -24818.72    325.98374   -732.08335    95.073019    1614.9615    42.208372    42.208372    84.416744 
   16400     1306.285   -23463.848   -24814.484   -25.287087   -615.01408   -1123.3991    1662.5519    42.213201    42.213201    84.426403 
   16500    1295.2002   -23459.082   -24798.257    291.00512    541.73227   -293.00424    624.28732    42.217697    42.217697    84.435394 
   16600    1298.3045   -23454.458   -24796.842    427.77144   -106.74198   -77.635231    1467.6915    42.221326    42.221326    84.442652 
   16700    1312.3375   -23449.857   -24806.751   -434.23125    344.95336    -335.1201    -1312.527    42.224976    42.224976    84.449952 
   16800    1313.8352   -23445.325   -24803.767   -7.8130911    241.15334      -625.34    360.74738    42.226947    42.226947    84.453894 
   16900    1317.4982   -23440.877   -24803.106    154.17465   -33.796722    641.94913   -145.62846     42.22762     42.22762    84.455241 
   17000    1318.8813   -23436.576   -24800.235   -118.96158   -342.50194    434.81014   -449.19293    42.227697    42.227697    84.455393 
   17100    1323.2576   -23432.257   -24800.442    252.66902    567.55637    665.98362   -475.53294    42.227557    42.227557    84.455113 
   17200    1331.2733   -23428.008   -24804.481    338.97508    323.49453   -424.18192    1117.6126    42.228553    42.228553    84.457106 
   17300    1325.0973   -23423.743    -24793.83    446.16828    730.51986   -167.77106    775.75603    42.231689    42.231689    84.463379 
   17400    1328.3327   -23419.518    -24792.95   -128.00006   -267.64317   -1103.8539    987.49686    42.236629    42.236629    84.473259 
   17500    1336.0779   -23415.357   -24796.797   -255.63845    290.05068   -824.70108   -232.26494     42.24126     42.24126    84.482519 
   17600    1338.9724    -23411.29   -24795.723   -599.18476   -365.14852   -307.95863   -1124.4471    42.245115    42.245115     84.49023 
   17700    1323.2594   -23407.301   -24775.488    83.035519    165.25736    1356.4726   -1272.6234    42.247566    42.247566    84.495133 
   17800    1335.2707   -23403.393   -24783.999   -341.74051   -808.17816   -312.03316     94.98978    42.249006    42.249006    84.498011 
   17900    1348.5378   -23399.493   -24793.816   -714.05604    25.864211   -865.94913   -1302.0832     42.24935     42.24935      84.4987 
   18000    1356.9558   -23395.617   -24798.644   -267.16778   -443.28599   -368.00619    9.7888471    42.248727    42.248727    84.497454 
   18100    1334.5598   -23391.886   -24771.757    439.98088    993.97733   -123.42321    449.38854    42.248472    42.248472    84.496943 
   18200    1341.7321   -23388.193    -24775.48    439.64147    1347.5522   -574.98172    546.35395     42.24949     42.24949     84.49898 
   18300    1340.3306   -23384.597   -24770.435     504.6784    874.14847     1468.807    -828.9203    42.251337    42.251337    84.502674 
   18400    1345.1436   -23381.015   -24771.829    74.794496    270.30678    57.215092   -103.13838    42.254879    42.254879    84.509758 
   18500    1347.8321   -23377.408   -24771.002   -145.14645   -245.23211    541.51398   -731.72123    42.259231    42.259231    84.518462 
   18600    1329.8782   -23373.916   -24748.946    209.34882   -121.63599    706.42384     43.25863    42.263707    42.263707    84.527414 
   18700    1336.7273   -23370.346   -24752.458    110.91123    652.19476    63.701096   -383.16215    42.268752    42.268752    84.537505 
   18800    1338.6769   -23366.757   -24750.885    37.868588   -598.46227      1674.44   -962.37198    42.273418    42.273418    84.546836 
   18900    1341.7565   -23363.187   -24750.498   -11.356809    41.896028    1010.0273   -1085.9938    42.277683    42.277683    84.555366 
   19000     1353.127   -23359.732   -24758.801   -635.43239   -622.49762   -650.72356   -633.07597    42.280931    42.280931    84.561862 
   19100    1345.1675   -23356.335   -24747.174    -161.1416   -516.60196    -642.4438    675.62097     42.28257     42.28257    84.565139 
   19200     1344.772   -23352.984   -24743.413    33.940466    -102.0236   -304.03586    507.88086    42.283606    42.283606    84.567211 
   19300    1358.9252   -23349.653   -24754.716   -321.02131    1131.4211   -1345.1681   -749.31694     42.28474     42.28474     84.56948 
   19400    1337.5823    -23346.35   -24729.346     152.1641    74.800408   -338.53242    720.22432    42.285599    42.285599    84.571198 
   19500    1348.7357   -23343.035   -24737.563   -134.46275    360.56387   -285.14231   -478.80979    42.286183    42.286183    84.572366 
   19600    1363.3328    -23339.75    -24749.37   -302.68561   -747.60653    239.53164   -399.98193    42.285533    42.285533    84.571067 
   19700    1346.7321   -23336.661   -24729.117    274.75025    1017.3823   -140.77381   -52.357704     42.28296     42.28296    84.565919 
   19800    1370.7266   -23333.621   -24750.886   -227.39313   -664.06765      321.568   -339.67974    42.280546    42.280546    84.561093 
   19900    1349.5879   -23330.624   -24726.033    942.92965    1494.4093    1059.9192    274.46051    42.278562    42.278562    84.557123 
   20000     1357.995   -23327.761   -24731.863     346.3674    816.55864    968.77188   -746.22833     42.27855     42.27855      84.5571 
   20100    1388.9189   -23325.062   -24761.137   -204.33935   -1324.0609    164.89622    546.14663    42.279372    42.279372    84.558743 
   20200    1379.2471   -23322.586   -24748.661    34.720691   -24.258525    -223.1766    351.59719    42.280693    42.280693    84.561387 
   20300    1365.2473   -23320.183   -24731.783    387.39552    235.41569   -395.29991    1322.0708    42.283187    42.283187    84.566374 
   20400    1360.4325   -23317.811   -24724.432    461.18286      64.5456    1083.9558    235.04718    42.286615    42.286615    84.573231 
   20500    1372.2333   -23315.387    -24734.21   -190.05985    682.98447    130.28624   -1383.4503    42.291353    42.291353    84.582705 
   20600    1349.8005   -23312.874   -24708.503    420.25106    638.23214      971.868   -349.34695    42.296213    42.296213    84.592426 
   20700    1374.1518   -23310.233    -24731.04   -376.42013   0.46536561   -512.70273   -617.02304    42.300917    42.300917    84.601835 
   20800    1369.1114   -23307.715    -24723.31   -340.83451   -1475.4065    160.67629    292.22668    42.304098    42.304098    84.608196 
   20900    1381.6344   -23305.132   -24733.676   -668.62107   -1021.2968    350.18975   -1334.7562    42.306467    42.306467    84.612934 
   21000    1381.6879   -23302.667   -24731.265   -262.40733   -357.30677   -317.84166   -112.07357    42.306175    42.306175    84.612351 
   21100    1384.4564   -23300.359    -24731.82   -464.56346   -886.21463   -724.18139    216.70564     42.30469     42.30469     84.60938 
   21200    1363.6713   -23298.118   -24708.089    546.91039    155.73641    1879.3347    -394.3399    42.302964    42.302964    84.605928 
   21300    1378.2687   -23295.849   -24720.913    210.52379   -100.49515   -37.199158    769.26567    42.302448    42.302448    84.604895 
   21400    1375.4727    -23293.61   -24715.782   -134.01521    437.29083   -273.63337    -565.7031     42.30291     42.30291     84.60582 
   21500    1366.2142   -23291.372   -24703.972    446.15641    167.35137    1392.0113   -220.89347    42.303434    42.303434    84.606867 
   21600    1380.9059     -23289.1   -24716.891    51.280133    798.12942   -939.77004    295.48102    42.304833    42.304833    84.609667 
   21700     1375.967   -23286.898   -24709.582    154.65474     519.8353     202.0289   -257.89998     42.30707     42.30707     84.61414 
   21800    1386.0862   -23284.655   -24717.801   -170.51837     1230.401    172.67575   -1914.6318    42.310978    42.310978    84.621956 
   21900     1381.899   -23282.553    -24711.37   -211.55286    66.850893   -347.89829   -353.61117    42.314406    42.314406    84.628812 
   22000    1384.6139   -23280.515   -24712.139   -137.08788    514.98751   -585.38649   -340.86467    42.317491    42.317491    84.634983 
   22100    1373.4509   -23278.442   -24698.524   -245.07608   -423.16693   -343.99872    31.937411    42.320665    42.320665     84.64133 
   22200    1377.9191   -23276.343   -24701.045   -93.043888   -329.07921    317.62489   -267.67735    42.322919    42.322919    84.645839 
   22300    1385.8723   -23274.348   -24707.273   -238.19637   -771.34502    512.09754   -455.34163    42.324125    42.324125    84.648251 
   22400    1379.2217    -23272.66   -24698.709   -150.72968    287.67587    -667.2023   -72.662604    42.323411    42.323411    84.646822 
   22500    1396.3231   -23271.022   -24714.753   -519.92828   -737.00244   -674.12461   -148.65778    42.321785    42.321785    84.643569 
   22600    1383.6923   -23269.417   -24700.088    12.811149    109.66348   -163.01911    91.789074    42.319298    42.319298    84.638596 
   22700    1385.7584   -23267.825   -24700.632    314.04189     550.0324    34.706002    357.38727    42.316566    42.316566    84.633131 
   22800    1400.8277   -23266.333   -24714.722   -41.359608    269.90435    263.83758   -657.82075     42.31428     42.31428     84.62856 
   22900    1381.9841   -23264.938   -24693.843    741.04719    1630.0132    204.55885     388.5695     42.31316     42.31316    84.626319 
   23000    1385.6039   -23263.591   -24696.239    472.96419    1467.0419     705.7541   -753.90348    42.314663    42.314663    84.629325 
   23100    1382.1833   -23262.295   -24691.406    245.48448   -155.13466    155.80841     735.7797    42.317805    42.317805    84.635611 
   23200    1364.7283   -23260.957    -24672.02     709.7915    1247.8371   -392.17943    1273.7169    42.322306    42.322306    84.644612 
   23300    1381.7755   -23259.483   -24688.173     215.4454   -389.40641    208.86645    826.87617    42.328526    42.328526    84.657052 
   23400    1381.6121   -23257.889    -24686.41   -305.44633    292.25193   -553.00436   -655.58657    42.335635    42.335635    84.671271 
   23500    1378.4213   -23256.202   -24681.423   -322.25605    -699.1902   -203.10682   -64.471124    42.341326    42.341326    84.682651 
   23600    1387.8869   -23254.515   -24689.524   -262.97053    205.67201   -274.01106   -720.57253     42.34513     42.34513     84.69026 
   23700    1390.9756   -23252.728    -24690.93   -653.80393   -562.38068   -839.94451   -559.08661    42.347761    42.347761    84.695522 
   23800     1388.981   -23251.047   -24687.187   -601.00239   -254.12872   -1070.6171   -478.26139    42.347209    42.347209    84.694418 
   23900    1390.9902   -23249.424   -24687.641   -162.33753    122.42313    43.394519   -652.83024    42.343747    42.343747    84.687494 
   24000    1385.1289   -23247.812   -24679.969   -13.190119   -801.33353    676.82593    84.937245    42.339472    42.339472    84.678944 
   24100    1392.2853   -23246.288   -24685.844   -71.523193    74.577957   -251.86303   -37.284501    42.334851    42.334851    84.669703 
   24200    1389.1744   -23244.817   -24681.157     216.9599   -373.45786    -681.0577    1705.3952    42.330543    42.330543    84.661085 
   24300    1403.0144   -23243.529   -24694.178    105.32415    336.32554   -482.59151    462.23843    42.327107    42.327107    84.654214 
   24400    1394.2456   -23242.427    -24684.01    533.87386    1205.5332    67.522259    328.56616    42.324987    42.324987    84.649974 
   24500    1414.3966    -23241.45   -24703.868   -44.514702    1041.1933   -189.09493   -985.64244    42.324468    42.324468    84.648937 
   24600    1382.9126   -23240.638   -24670.503    905.45644    281.03447    1152.9376    1282.3972    42.324971    42.324971    84.649942 
   24700    1390.1137   -23239.813   -24677.123    576.22721    1315.7446    822.41467   -409.47763     42.32825     42.32825      84.6565 
   24800    1393.2446   -23239.037   -24679.585    305.94347   -51.926662    569.31123    400.44584    42.333216    42.333216    84.666433 
   24900    1390.5541   -23238.222   -24675.988   -4.6619898    -722.8159    80.331654    628.49828    42.339153    42.339153    84.678307 
   25000    1403.2525   -23237.431   -24688.326    -370.8003    -721.0991    91.675223   -482.97703    42.344701    42.344701    84.689401 
   25100    1395.9133   -23236.657   -24679.964    -237.8773   -1061.2657   -662.84967    1010.4835    42.349117    42.349117    84.698234 
   25200    1399.7799   -23235.894   -24683.199   -734.55962   -316.85346   -1058.9737   -827.85173    42.352813    42.352813    84.705627 
   25300    1401.2909   -23235.007   -24683.875   -884.34515   -1003.8301   -567.14787   -1082.0575    42.354932    42.354932    84.709864 
   25400    1403.0026   -23234.228   -24684.865   -683.14763   -913.68911   -609.10962   -526.64416    42.353644    42.353644    84.707288 
   25500    1392.7741   -23233.591   -24673.652    135.25349    502.37526    553.70296   -650.31775    42.349563    42.349563    84.699127 
   25600    1402.7025   -23233.001   -24683.328   -250.00121   -549.69773   -257.67388     57.36798    42.344855    42.344855    84.689711 
   25700    1401.7166   -23232.462    -24681.77     270.4656    607.19025    188.70514    15.501411    42.339679    42.339679    84.679359 
   25800    1392.0199   -23232.074   -24671.355    661.25361    797.44889    847.83725    338.47468    42.335218    42.335218    84.670437 
   25900    1396.5471   -23231.512   -24675.474    317.46099    1308.7168   -217.45289   -138.88095    42.333649    42.333649    84.667298 
   26000    1413.4318   -23231.065   -24692.485   -84.720196    885.78119   -1019.8594   -120.08237    42.333372    42.333372    84.666744 
   26100    1396.1343   -23230.771   -24674.307     344.9134     312.0889   -290.10226    1012.7536    42.333824    42.333824    84.667648 
   26200    1401.6588   -23230.452     -24679.7     194.5799    390.81063   -76.224629    269.15369     42.33567     42.33567     84.67134 
   26300    1399.0661   -23230.214   -24676.781    265.48539    663.04661    1157.9734   -1024.5638    42.338123    42.338123    84.676246 
   26400    1408.6602   -23230.051   -24686.538    -437.4677   -869.37045   -115.56012   -327.47253    42.340962    42.340962    84.681924 
   26500    1393.4409   -23229.955   -24670.706    503.83656    936.07071    -53.45381    628.89278    42.343275    42.343275     84.68655 
   26600    1395.5933   -23229.935   -24672.911    402.10082   -691.25568    1048.5589    848.99928    42.346235    42.346235    84.692471 
   26700    1404.0786   -23229.887   -24681.636   -556.86626   -636.07626   -997.38557   -37.136944    42.349687    42.349687    84.699373 
   26800    1404.9868   -23229.935   -24682.624   -301.04599    52.568952   -556.72696   -398.97997    42.351188    42.351188    84.702375 
   26900    1403.2418   -23230.159   -24681.044   -621.04542   -979.43683   -391.22035   -492.47907     42.35053     42.35053    84.701059 
   27000    1414.5081   -23230.523   -24693.057   -598.58574   -153.95854   -2457.0058    815.20711    42.347507    42.347507    84.695015 
   27100    1394.3575   -23230.916   -24672.615    92.394945   -224.00952    696.18387   -194.98952    42.343255    42.343255     84.68651 
   27200     1388.352   -23231.263   -24666.752    14.579623     300.9874    375.45273   -632.70126    42.338925    42.338925     84.67785 
   27300    1420.0325   -23231.366   -24699.611   -512.50182    -1173.022   -102.41139   -262.07208    42.334914    42.334914    84.669828 
   27400    1402.4226   -23231.515   -24681.552    424.21548   -101.29533    124.69257    1249.2492    42.330334    42.330334    84.660669 
   27500    1413.5096   -23231.547   -24693.048    428.03868   -105.37264    960.46457     429.0241    42.328569    42.328569    84.657137 
   27600    1395.0955   -23231.483   -24673.945    296.90175   -451.85832    1066.8495    275.71413    42.330627    42.330627    84.661255 
   27700    1402.1991   -23231.354    -24681.16    476.80006    319.82501    186.27619    924.29899    42.334348    42.334348    84.668695 
   27800    1399.4112   -23231.341   -24678.265    123.67511   -386.27208    232.40417    524.89325    42.339155    42.339155    84.678309 
   27900    1406.4122   -23231.411   -24685.573   -368.27122   -917.04086   -134.55251     -53.2203    42.344158    42.344158    84.688315 
   28000     1401.971   -23231.511   -24681.081   -151.42466    362.11787   -511.82095   -304.57089    42.347808    42.347808    84.695615 
   28100    1398.9689   -23231.633     -24678.1    -177.3685   -339.36273    171.74033    -364.4831    42.349829    42.349829    84.699657 
   28200     1399.115   -23231.713   -24678.331   -411.38308   -1013.2482   -289.16672    68.265715    42.350379    42.350379    84.700759 
   28300    1394.8719   -23231.775   -24674.006   -102.61257    -34.12702   -19.163887    -254.5468    42.349089    42.349089    84.698178 
   28400    1399.7872   -23231.794   -24679.107   -385.84112   -964.71627    86.455457   -279.26253    42.346881    42.346881    84.693761 
   28500    1383.8252   -23231.672   -24662.481    290.77672   -1092.7141    836.46131     1128.583    42.344091    42.344091    84.688181 
   28600    1388.7939   -23231.428   -24667.374     470.4584    913.54855   -336.95981    834.78645    42.341723    42.341723    84.683446 
   28700    1410.0486   -23231.119   -24689.041   -485.18279    87.999671   -542.52853   -1001.0195    42.340823    42.340823    84.681645 
   28800    1425.1776   -23230.919   -24704.484   -508.12451    -1359.423   -289.73676    124.78626    42.339919    42.339919    84.679839 
   28900    1416.2184    -23230.86   -24695.162   -349.22246   -745.59044     99.67036    -401.7473    42.338366    42.338366    84.676732 
   29000    1406.2899   -23230.984    -24685.02    153.03538     204.8747   -400.40753    654.63897    42.336105    42.336105    84.672211 
   29100     1406.636   -23231.166    -24685.56   -189.97745     92.92862   -329.35602   -333.50494    42.334834    42.334834    84.669668 
   29200    1396.7096   -23231.316   -24675.447    114.34764   -240.14042   -75.601795    658.78513    42.334084    42.334084    84.668167 
   29300    1401.3072   -23231.497   -24680.381    223.49977   -22.661066    426.05986    267.10053    42.333234    42.333234    84.666468 
   29400    1391.1395    -23231.64   -24670.012    731.20042    1182.4119    345.48899    665.70035    42.333739    42.333739    84.667478 
   29500    1422.1127   -23231.751   -24702.147   -68.073759    457.12302   -454.24024   -207.10405    42.336163    42.336163    84.672326 
   29600    1393.9405    -23232.09   -24673.357     112.3369   -452.89056    438.30958    351.59167    42.338792    42.338792    84.677584 
   29700    1405.0315   -23232.336    -24685.07   -104.09523   -949.27944    586.78619    50.207553    42.342069    42.342069    84.684138 
   29800    1407.2261   -23232.482   -24687.486   -389.25688   -978.13187    -709.3981    519.75931    42.345273    42.345273    84.690546 
   29900    1404.9064   -23232.615   -24685.221   -176.80231    316.23919    -392.9196   -453.72652    42.347452    42.347452    84.694903 
   30000     1397.746   -23232.695   -24677.897   -304.62805   -861.40871    600.97971   -653.45513     42.34911     42.34911     84.69822 
   30100    1388.0096   -23232.786   -24667.921    40.357172   -707.42212     1909.256   -1080.7624    42.349349    42.349349    84.698698 
   30200     1392.227   -23232.822   -24672.318   -84.854095    -56.68448   -461.26934    263.39154    42.348874    42.348874    84.697748 
   30300     1414.388   -23232.894   -24695.303   -478.37588   -191.85926   -1107.4908   -135.77763    42.347372    42.347372    84.694743 
   30400    1391.4928   -23232.977   -24671.713    9.5279806    45.727217    559.82282    -576.9661     42.34567     42.34567    84.691339 
   30500    1416.7713   -23232.976   -24697.849   -668.84149    -71.78186   -856.53638   -1078.2062    42.344163    42.344163    84.688327 
   30600    1396.8668   -23232.915   -24677.209   -34.135753    138.71008   -205.37429   -35.743053    42.342028    42.342028    84.684057 
   30700    1391.6695   -23232.754   -24671.673    216.67541    470.87887   -147.50077    326.64814    42.340111    42.340111    84.680223 
   30800    1386.5745   -23232.633   -24666.285    394.37129    183.75879    989.27935    10.075717     42.33861     42.33861     84.67722 
   30900    1399.3506    -23232.48   -24679.342    93.421652    382.10392   -237.08179    135.24283    42.337822    42.337822    84.675644 
   31000    1404.1435   -23232.275   -24684.092    157.24079   -832.19939    1135.2859    168.63585    42.337295    42.337295    84.674589 
   31100     1401.933   -23232.011   -24681.542   -24.653641   -469.24533   -487.16777    882.45218    42.337885    42.337885    84.675771 
   31200    1398.7349   -23231.765    -24677.99    240.46229    786.88549   -565.04935    499.55073    42.339072    42.339072    84.678145 
   31300    1396.2559   -23231.512   -24675.173    373.59954    392.13403    263.89488    464.76971     42.34134     42.34134    84.682679 
   31400    1406.1423   -23231.263   -24685.146   -288.04886   -1008.3043   -111.91121    256.06889    42.344729    42.344729    84.689459 
   31500    1406.9326   -23231.047   -24685.747   -543.43316   -1014.9973   -342.31819   -272.98398     42.34764     42.34764    84.695281 
   31600     1403.672   -23230.938   -24682.268    -826.6866   -671.39236   -1405.4721    -403.1953    42.348434    42.348434    84.696868 
   31700     1395.463   -23230.834   -24673.676    108.53358   -118.71839    468.00549   -23.686353    42.346983    42.346983    84.693966 
   31800    1403.9954   -23230.614   -24682.278   -303.45362    432.09558   -929.58788   -412.86857    42.345756    42.345756    84.691512 
   31900    1404.6226   -23230.449   -24682.761    379.18298    377.31436    542.79937    217.43523     42.34441     42.34441    84.688819 
   32000    1417.3781   -23230.378   -24695.879   -614.44754    130.52986    -1235.692   -738.18051    42.343613    42.343613    84.687226 
   32100    1409.6314   -23230.485   -24687.977    -106.3409     52.85568   -179.40416   -192.47422    42.341688    42.341688    84.683376 
   32200    1404.9399   -23230.624   -24683.264     3.728455    543.12586   -593.70495    61.764453     42.34043     42.34043    84.680859 
   32300    1387.1499   -23230.799   -24665.045    547.16146   -133.03724    874.82729    899.69434    42.339969    42.339969    84.679938 
   32400    1405.2936   -23230.904    -24683.91    24.287881   -156.45068   -9.2478893    238.56221    42.340734    42.340734    84.681468 
   32500    1401.5281    -23230.97   -24680.083   -123.93727   -282.79777   -174.24648    85.232431    42.342076    42.342076    84.684153 
   32600    1394.9584   -23231.017   -24673.337    178.84763    887.12587   -795.41136    444.82838    42.343653    42.343653    84.687306 
   32700    1390.4339   -23231.007   -24668.649    441.28956    624.32592    913.16514   -213.62237    42.345876    42.345876    84.691752 
   32800    1392.0117   -23230.999   -24670.272   -166.22862    110.97122    1017.8419    -1627.499    42.348417    42.348417    84.696834 
   32900    1401.8114   -23231.077   -24680.482   -521.88176   -37.549089   -1671.8824    143.78622    42.349329    42.349329    84.698658 
   33000    1398.1326   -23231.215   -24676.817   -199.87516   -653.92967    419.14617   -364.84198    42.348133    42.348133    84.696266 
   33100    1394.4616   -23231.366   -24673.172   -30.784636    697.67859   -526.69917   -263.33333    42.345881    42.345881    84.691761 
   33200    1401.5974   -23231.425   -24680.609   -76.799364   -238.62973    123.49521   -115.26358    42.343397    42.343397    84.686793 
   33300    1399.6805   -23231.371   -24678.573    250.72484   -511.94593    968.90631    295.21414    42.341506    42.341506    84.683011 
   33400    1387.3806   -23231.274   -24665.759    545.28146    866.00845    689.70627    80.129668    42.340744    42.340744    84.681488 
   33500    1399.8467   -23231.129   -24678.503    260.63772   -1377.7081    1104.5119    1055.1093    42.341276    42.341276    84.682552 
   33600    1390.9475   -23230.999   -24669.171    315.30372   -940.50283    1546.2565    340.15749    42.342492    42.342492    84.684984 
   33700    1403.9669   -23230.877   -24682.511   -127.17623   -9.3068315   -131.50691   -240.71496    42.343843    42.343843    84.687686 
   33800    1392.8194   -23230.703   -24670.811    126.26868    812.13159    368.39035    -801.7159    42.345636    42.345636    84.691271 
   33900    1414.2711   -23230.382   -24692.671   -419.84161   -668.80957   -153.37533   -437.33994    42.348615    42.348615     84.69723 
   34000    1386.4142   -23230.143   -24663.629    16.814706   -690.23119   -351.00231    1091.6776    42.350915    42.350915     84.70183 
   34100    1403.9442   -23229.828   -24681.439   -155.39535   -998.40403    838.06529   -305.84731     42.35247     42.35247     84.70494 
   34200    1393.7318   -23229.587   -24670.639   -133.84689   -328.03811   -131.91118     58.40862      42.3527      42.3527      84.7054 
   34300    1382.7094   -23229.402   -24659.057    228.49047    1280.5211   -690.38852    95.338785    42.351195    42.351195     84.70239 
   34400    1404.2203   -23229.221   -24681.117   -242.70435    -789.5529    415.06529   -353.62544     42.34902     42.34902     84.69804 
   34500    1392.6992   -23229.037   -24669.021    96.813445    788.51614   -453.98313   -44.092682    42.346629    42.346629    84.693259 
   34600    1406.4724   -23228.807   -24683.032    -177.0928    82.507989   -119.54108   -494.24532     42.34432     42.34432     84.68864 
   34700     1399.808   -23228.591   -24675.925    70.896991    268.54197   -134.84992    78.998923    42.341591    42.341591    84.683182 
   34800    1383.7647   -23228.386   -24659.132    885.89113    1646.6431   -10.666629    1021.6969    42.339624    42.339624    84.679249 
   34900    1398.6004   -23228.194   -24674.279    465.64294    514.40418    606.34903    276.17562    42.340384    42.340384    84.680768 
   35000    1411.0519   -23228.113   -24687.073   -243.14178     354.9913   -1100.7676    16.350947    42.342588    42.342588    84.685175 
   35100    1401.0308   -23228.149   -24676.747    295.36591    266.18354    199.65809    420.25611    42.344466    42.344466    84.688932 
   35200    1401.3784   -23228.189   -24677.147   -84.048374    276.43337    -912.9113    384.33281    42.347399    42.347399    84.694798 
   35300    1399.9325   -23228.194   -24675.656   -276.17931   -114.81231   -429.15967   -284.56597    42.350724    42.350724    84.701449 
   35400    1387.7024   -23228.106   -24662.924   -219.06358   -454.11081    74.328435   -277.40836    42.353436    42.353436    84.706871 
   35500    1397.2199   -23227.861   -24672.519   -222.46419    931.12599   -917.70269   -680.81588    42.355139    42.355139    84.710277 
   35600    1400.6939   -23227.584   -24675.834   -390.90998   -492.81419    -74.02026   -605.89548    42.355193    42.355193    84.710386 
   35700    1404.1685   -23227.439   -24679.281   -199.22547   -1166.0318    1221.4142   -653.05874     42.35314     42.35314    84.706281 
   35800    1386.4278   -23227.268   -24660.768    262.16277    -666.0503    105.92373    1346.6149    42.350358    42.350358    84.700717 
   35900    1403.1066   -23227.045   -24677.789   -482.21846    -577.4748   -1045.3821    176.20149     42.34764     42.34764     84.69528 
   36000     1395.083   -23226.816   -24669.264    286.24279   -817.01025    1733.5173   -57.778703    42.344036    42.344036    84.688072 
   36100    1407.4634   -23226.704   -24681.953    264.22472    488.57061   -357.49076     661.5943    42.340252    42.340252    84.680504 
   36200    1389.2751   -23226.689   -24663.132     680.4031    775.49772   -49.058233    1314.7698    42.337893    42.337893    84.675786 
   36300    1420.2074   -23226.732   -24695.158   -67.425343   -718.39457    340.65561    175.46293    42.337689    42.337689    84.675378 
   36400    1390.8483   -23226.922   -24664.992    426.05494    710.85797   -271.23179    838.53865    42.338366    42.338366    84.676732 
   36500    1413.0764   -23227.128   -24688.181   -4.8459905    129.05909   -214.08356    70.486503    42.340276    42.340276    84.680552 
   36600    1411.7144   -23227.379   -24687.024   -403.59206    21.020264    177.12584   -1408.9223    42.342718    42.342718    84.685436 
   36700    1403.0447   -23227.753   -24678.434    189.57928    617.25795    1049.5224   -1098.0425     42.34416     42.34416    84.688319 
   36800    1405.3761   -23228.178   -24681.269   -127.87919   -473.35136    665.75053   -576.03673    42.345662    42.345662    84.691324 
   36900    1403.7606   -23228.642   -24680.063   -228.27806    288.16208   -426.40377   -546.59248    42.346301    42.346301    84.692601 
   37000    1389.5319   -23229.191     -24665.9   -267.86397   -668.97953   -277.34134    142.72896    42.345351    42.345351    84.690701 
   37100     1407.605   -23229.656   -24685.052   -338.86689   -1050.6378    6.1250035    27.912097    42.342805    42.342805    84.685611 
   37200    1392.7973   -23229.967   -24670.053    312.27784    711.90679    1010.8312   -785.90451     42.34001     42.34001     84.68002 
   37300    1388.1043   -23230.184   -24665.417    142.10398   -192.56344    692.88825   -74.012855    42.338068    42.338068    84.676136 
   37400    1401.1004   -23230.434   -24679.104     290.6899     545.0272    317.94487     9.097633     42.33589     42.33589     84.67178 
   37500    1399.2095   -23230.776   -24677.491    508.82164   -228.20754    622.09151    1132.5809    42.334575    42.334575     84.66915 
   37600    1394.8707   -23231.029   -24673.258    425.09264    1626.9216    57.355099   -408.99878     42.33576     42.33576     84.67152 
   37700    1404.0476   -23231.272    -24682.99    195.50692    1811.4331   -398.51562   -826.39678    42.338384    42.338384    84.676769 
   37800    1403.5355   -23231.649   -24682.837   -40.380334   -984.16234    1101.4933     -238.472    42.341215    42.341215    84.682431 
   37900    1405.5505   -23231.978    -24685.25   -306.52838   -751.45372   -278.58389    110.45246      42.3439      42.3439      84.6878 
   38000    1395.1675   -23232.305   -24674.841     164.7796   -50.066269     454.4405    89.964578    42.345745    42.345745    84.691491 
   38100    1414.8398   -23232.497   -24695.374   -476.30723   -136.01081   -928.39924   -364.51164    42.347747    42.347747    84.695493 
   38200     1395.375   -23232.643   -24675.393    107.25451   -810.31686    1079.5502    52.530174    42.348808    42.348808    84.697616 
   38300    1404.5809   -23232.726   -24684.995   -97.328214   -175.62844    53.407317   -169.76352    42.349679    42.349679    84.699357 
   38400    1378.4619   -23232.784   -24658.047   -90.987288    332.27276    153.83437     -759.069    42.349803    42.349803    84.699606 
   38500    1385.3302   -23232.754   -24665.118   -135.22988   -239.24025   -19.870709   -146.57867    42.348207    42.348207    84.696414 
   38600    1386.9431    -23232.57   -24666.603    314.71216   -175.58989     616.4404    503.28597    42.345852    42.345852    84.691705 
   38700    1399.0186    -23232.32   -24678.838   -40.259076    113.37694   -235.92069     1.766526    42.344052    42.344052    84.688103 
   38800    1411.8653   -23232.112   -24691.913   -391.30243   -376.85011    74.869871   -871.92704    42.342165    42.342165    84.684331 
   38900    1401.4412   -23231.819   -24680.842   -89.077232    301.27005   -1352.0194    783.51767    42.340404    42.340404    84.680809 
   39000    1389.4243   -23231.608   -24668.206    113.63834   -324.01632    -528.2576    1193.1889    42.338452    42.338452    84.676903 
   39100    1400.1281   -23231.437   -24679.102    265.18142   -229.65563    584.10258    441.09731    42.336136    42.336136    84.672271 
   39200    1405.9833   -23231.335   -24685.054   -37.222496    149.92406    -651.5991    390.00756    42.334281    42.334281    84.668562 
   39300    1405.4121   -23231.268   -24684.396    750.68919    1208.0537    759.67175    284.34211    42.333676    42.333676    84.667352 
   39400    1406.9782   -23231.228   -24685.976    188.73962    952.25436    79.304823   -465.34033    42.335863    42.335863    84.671726 
   39500     1394.993   -23231.157   -24673.512    197.31197    -334.2503    451.67191    474.51432    42.339436    42.339436    84.678872 
   39600    1403.8734    -23231.01   -24682.548   -112.11248    -155.1581   -272.30113    91.121787    42.344219    42.344219    84.688438 
   39700     1391.302   -23230.759   -24669.299   -68.480032    55.516114    1202.4597   -1463.4159    42.349485    42.349485     84.69897 
   39800    1390.5635   -23230.441   -24668.217    -125.5422    841.13622   -179.48652   -1038.2763    42.354277    42.354277    84.708553 
   39900     1399.727   -23230.061   -24677.311   -513.17783    -252.6993   -438.40952   -848.42466    42.357947    42.357947    84.715894 
   40000    1396.3071   -23229.658   -24673.373   -747.06875   -257.05491   -356.81407   -1627.3373    42.359376    42.359376    84.718751 
   40100    1389.9789   -23229.238   -24666.409    -636.2579   -133.30815   -499.24541   -1276.2201    42.357876    42.357876    84.715751 
   40200     1384.153   -23228.849   -24659.996   -160.70005   -20.371931   -61.666387   -400.06183    42.353219    42.353219    84.706437 
   40300     1395.204   -23228.399   -24670.973    124.02158    1186.3124   -867.32426    53.076616    42.347165    42.347165     84.69433 
   40400    1396.8468       -23228   -24672.272   -65.111519    379.23197   -555.24086   -19.325673    42.341077    42.341077    84.682154 
   40500    1410.0229   -23227.646   -24685.542   -216.25887    305.33591   -1276.0163    321.90378    42.335261    42.335261    84.670522 
   40600    1407.6947   -23227.333   -24682.821    167.00349   -151.64637   -608.59215     1261.249    42.330152    42.330152    84.660305 
   40700    1400.9018   -23227.084   -24675.549    701.87656    421.07097    647.39979    1037.1589    42.327032    42.327032    84.654064 
   40800    1392.6469   -23226.968   -24666.897    932.53323    1215.7182    285.41058    1296.4709    42.326542    42.326542    84.653084 
   40900    1403.6401   -23226.927   -24678.223    746.64097    120.09969    655.46261    1464.3606     42.32886     42.32886     84.65772 
   41000    1411.2671   -23226.993   -24686.175    59.914112   -1030.9092    1636.4934   -425.84188    42.333512    42.333512    84.667024 
   41100    1386.9234    -23227.14   -24661.152    348.22392   -256.44182    1678.1179   -377.00435    42.339423    42.339423    84.678846 
   41200    1391.2554   -23227.131   -24665.622    290.51908   -276.57238    146.99952    1001.1301    42.346764    42.346764    84.693528 
   41300     1391.914    -23226.96   -24666.132   -34.385888   -66.619598   -1191.0957    1154.5577    42.354488    42.354488    84.708976 
   41400    1403.9588   -23226.658   -24678.284   -818.08674   -2386.2278   -470.31144    402.27908     42.36143     42.36143     84.72286 
   41500    1409.6207   -23226.323   -24683.803   -1049.1467   -1220.4917   -202.78531    -1724.163    42.365726    42.365726    84.731451 
   41600    1401.4321   -23225.965   -24674.978   -450.18782   -326.55454   -726.17458   -297.83435    42.367089    42.367089    84.734178 
   41700    1390.3707   -23225.627   -24663.203   -372.44296   -1094.3586    169.89872   -192.86901    42.366788    42.366788    84.733576 
   41800    1400.0404   -23225.314   -24672.888   -586.95587   -571.03512   -921.51972   -268.31276    42.364388    42.364388    84.728776 
   41900    1399.9895    -23225.08   -24672.602   -60.944588    299.57359   -537.18488    54.777526    42.359666    42.359666    84.719332 
   42000    1395.9624   -23224.759   -24668.117   -441.55738   -222.36132   -178.56235   -923.74847    42.354595    42.354595    84.709191 
   42100     1402.901   -23224.416   -24674.949    32.228054    -208.7848    300.73115    4.7378108    42.348743    42.348743    84.697486 
   42200    1421.1521   -23224.153   -24693.556   -388.79634   -249.61532   -221.48707   -695.28662    42.343718    42.343718    84.687435 
   42300    1416.2655   -23223.915   -24688.266    326.11329    380.12713   -340.65088    938.86362    42.339896    42.339896    84.679792 
   42400     1388.197   -23223.735   -24659.064    651.26644    536.95163   -328.19856    1745.0462    42.338576    42.338576    84.677152 
   42500    1418.2095   -23223.667   -24690.028   -76.596006   -795.51646    318.96942    246.75902    42.338683    42.338683    84.677365 
   42600    1398.0827   -23223.799   -24669.349    378.06139   -40.992251    63.209079    1111.9673    42.338651    42.338651    84.677303 
   42700    1399.9656   -23223.967   -24671.464    245.08056   -249.49373    278.06714    706.66828    42.339508    42.339508    84.679017 
   42800    1410.9645   -23224.132   -24683.001    4.1173488   -803.14054    347.36288     468.1297    42.341415    42.341415    84.682831 
   42900    1408.3505     -23224.4   -24680.567    20.100071   -9.4660606    635.22643   -565.46015    42.343636    42.343636    84.687272 
   43000    1399.2075   -23224.649   -24671.362    17.333608    83.049859    818.02172   -849.07076    42.346529    42.346529    84.693058 
   43100    1402.2105    -23224.88   -24674.698   -495.16937   -358.66728   -739.89155    -386.9493    42.349072    42.349072    84.698144 
   43200    1417.3443   -23225.251   -24690.717   -351.36818   -539.18201    611.47271   -1126.3952    42.349286    42.349286    84.698572 
   43300    1399.5604   -23225.605   -24672.683    149.66873    130.19634   -46.410026    365.21989    42.349175    42.349175    84.698349 
   43400    1386.5054   -23225.979   -24659.559    399.92985     437.2096    507.17691    255.40303    42.349096    42.349096    84.698192 
   43500    1403.2626   -23226.276   -24677.182   -259.39856   -131.53995   -538.41882   -108.23692    42.349698    42.349698    84.699396 
   43600      1414.07   -23226.614   -24688.695   -483.60504   -779.23468     66.52194   -738.10238    42.349371    42.349371    84.698742 
   43700    1406.3874   -23227.019   -24681.155   -253.42896   -1072.0859    581.38715   -269.58809    42.347799    42.347799    84.695598 
   43800    1384.7079   -23227.472   -24659.194    203.22352    421.15844    239.16519   -50.653086     42.34537     42.34537     84.69074 
   43900    1407.9275   -23227.862   -24683.591    49.360414   -469.78692    1239.1028   -621.23467    42.342493    42.342493    84.684985 
   44000    1402.3226   -23228.204   -24678.138   -48.658581   -560.05206    240.11992     173.9564     42.34015     42.34015    84.680301 
   44100    1401.4117   -23228.649   -24677.642    319.51273   -974.43609     1729.009     203.9653     42.33755     42.33755      84.6751 
   44200    1398.1723   -23229.127    -24674.77    241.63433    -508.1797    865.50939     367.5733    42.335585    42.335585    84.671169 
   44300    1394.6731   -23229.551   -24671.576    371.93745    208.34964    716.80673    190.65598    42.335254    42.335254    84.670508 
   44400    1397.5641   -23229.814   -24674.828    391.74725    1343.8442   -169.90215    1.2996932    42.336787    42.336787    84.673575 
   44500    1397.5992   -23230.056   -24675.107    391.98291    867.65159    569.89424   -261.59709    42.339664    42.339664    84.679327 
   44600     1394.601   -23230.295   -24672.245   -57.505457     503.6301    438.88481   -1115.0313    42.343241    42.343241    84.686481 
   44700    1396.2442   -23230.488   -24674.138   -130.59798    392.98385   -255.22581   -529.55198    42.346166    42.346166    84.692332 
   44800    1411.0659    -23230.64   -24689.615   -411.06023   -110.29044   -1296.6844    173.79417    42.348144    42.348144    84.696289 
   44900      1396.94   -23230.789   -24675.157   -370.78713    739.52495   -1179.2271   -672.65923    42.349381    42.349381    84.698761 
   45000    1397.2915   -23230.905   -24675.638   -253.54811   -196.34964   -1058.8964    494.60166     42.34948     42.34948    84.698961 
   45100    1398.3876   -23230.949   -24676.815   -228.25782   -851.32536    -28.93205    195.48396    42.348745    42.348745     84.69749 
   45200     1390.734   -23230.931   -24668.883    429.59708   -567.66994    1065.5942    790.86703    42.347374    42.347374    84.694749 
   45300    1397.7141   -23230.795   -24675.964   -43.200507    549.65008   -854.31484    175.06324    42.346828    42.346828    84.693655 
   45400     1388.641   -23230.615   -24666.403    83.455115    208.34321    68.252991   -26.230857    42.346226    42.346226    84.692453 
   45500     1390.587   -23230.408   -24668.209     187.1761   -159.49221    28.771732    692.24879     42.34542     42.34542     84.69084 
   45600    1388.5381   -23230.137   -24665.819     289.7255    252.39185    239.77465    377.00998    42.344642    42.344642    84.689283 
   45700    1391.2317   -23229.788   -24668.255    564.23416    1456.9553   -34.508109     270.2553    42.344357    42.344357    84.688714 
   45800    1395.6152    -23229.32   -24672.319     77.19205    1637.8248   -1228.8811   -177.36749    42.345121    42.345121    84.690241 
   45900    1391.6313   -23228.881   -24667.761    182.68527    32.515619   -132.47922    648.01941    42.345862    42.345862    84.691725 
   46000    1396.1774   -23228.332   -24671.913    235.92594   -373.70341    743.63673    337.84451    42.348038    42.348038    84.696076 
   46100    1392.3343   -23227.835   -24667.442   -253.94185   -299.88096    -910.6713    448.72671    42.350603    42.350603    84.701205 
   46200    1405.8702   -23227.362   -24680.964   -193.83382   -14.475328   -1008.3441    441.31801    42.351764    42.351764    84.703529 
   46300    1397.9959   -23226.914   -24672.374   -406.66506   -943.58275   -639.05238    362.63996       42.352       42.352       84.704 
   46400    1407.1585    -23226.49   -24681.425   -111.33637   -142.76255   -230.08688     38.84032    42.350932    42.350932    84.701864 
   46500    1395.3328   -23226.111   -24668.818     285.5798    379.31036    620.63325   -143.20422    42.349522    42.349522    84.699045 
   46600    1404.9883   -23225.877   -24678.568   -78.203081   -512.22611    269.39119    8.2256782    42.347882    42.347882    84.695765 
   46700    1417.8709   -23225.773   -24691.784    -570.7537   -569.75788   -1304.1176    161.61433    42.345786    42.345786    84.691572 
   46800    1395.5295   -23225.903   -24668.814    545.38732    2024.2598   -17.741652   -370.35624    42.342561    42.342561    84.685122 
   46900    1409.5972   -23226.067   -24683.523    15.025972   -969.48043   -159.12415    1173.6825    42.340564    42.340564    84.681128 
   47000    1402.9423   -23226.348   -24676.923    183.73465     922.5343   -575.80325     204.4729    42.339109    42.339109    84.678218 
   47100    1401.9916   -23226.529   -24676.121    6.5957696   -8.6327627   -736.22225    764.64232     42.33885     42.33885      84.6777 
   47200    1392.6824   -23226.586   -24666.553    278.93859    982.94345   -549.37925    403.25157    42.339548    42.339548    84.679096 
   47300    1408.5663   -23226.606   -24682.995   -224.88009    310.51691   -1080.1166    94.959386    42.341164    42.341164    84.682327 
   47400    1409.6521   -23226.579   -24684.092   -348.26966   -152.58879   -1072.7778    180.55765    42.343314    42.343314    84.686627 
   47500     1399.726   -23226.613   -24673.863   -184.48211   -726.40109    273.23014   -100.27538    42.344862    42.344862    84.689724 
   47600    1404.0069   -23226.745   -24678.421   -75.992646   -1414.9827    728.57502    458.42975    42.345324    42.345324    84.690647 
   47700     1395.354   -23227.006   -24669.735     5.105928    144.90194     230.2811   -359.86526    42.344986    42.344986    84.689973 
   47800    1393.3602   -23227.312   -24667.979    207.38347     977.6538     300.9053    -656.4087       42.344       42.344       84.688 
   47900     1396.215   -23227.569   -24671.188    102.70988    1685.3424   -820.62364   -556.58912     42.34335     42.34335      84.6867 
   48000    1408.1527     -23227.7   -24683.662    223.04296   -109.53068    465.72464    312.93492    42.343567    42.343567    84.687134 
   48100    1393.8521   -23227.811   -24668.987    318.43973    334.11698    421.37896    199.82324    42.344976    42.344976    84.689952 
   48200    1397.9482   -23227.884   -24673.295    122.74316    1283.6311    163.30887   -1078.7105    42.347633    42.347633    84.695265 
   48300    1392.0583   -23227.961   -24667.282    92.034004   -841.20726    102.35973    1014.9495    42.350275    42.350275    84.700549 
   48400    1403.7407   -23228.035   -24679.435   -131.44973   -804.18167   -281.37869    691.21117     42.35227     42.35227    84.704541 
   48500    1388.0475   -23228.249   -24663.423    37.068655     3.445944    -194.2949    302.05492    42.352628    42.352628    84.705256 
   48600    1388.6035   -23228.383   -24664.132    8.5603692   -43.622825   -41.763164     111.0671    42.351707    42.351707    84.703414 
   48700    1390.0755   -23228.425   -24665.696    62.909624    38.166249       129.12    21.442626    42.349828    42.349828    84.699657 
   48800    1404.0637   -23228.415    -24680.15   -47.839707    879.54745    59.999921   -1083.0665    42.347511    42.347511    84.695023 
   48900    1407.8526   -23228.414   -24684.066   -279.25163   -1322.8284      1380.32   -895.24649    42.345048    42.345048    84.690096 
   49000    1401.2165   -23228.467   -24677.257    55.258671   -457.68346    1035.2104   -411.75088    42.342119    42.342119    84.684238 
   49100    1407.4888   -23228.521   -24683.797   -186.55654   -715.91262   -147.88625    304.12926     42.33948     42.33948    84.678961 
   49200    1419.0827   -23228.607   -24695.871   -93.723874   -856.25194     571.4595    3.6208118    42.337094    42.337094    84.674188 
   49300    1387.8722   -23228.795   -24663.788    622.42495    551.20391    788.10425     527.9667    42.335432    42.335432    84.670864 
   49400    1400.1566   -23228.835    -24676.53    164.95599   -691.13161     1331.797   -145.79738    42.335503    42.335503    84.671005 
   49500    1384.2935    -23228.94   -24660.233    895.71854   -79.092067    833.49468     1932.753    42.336407    42.336407    84.672815 
   49600      1395.47   -23228.973   -24671.822    426.75798    294.31233    1850.2399   -864.27831     42.33982     42.33982     84.67964 
   49700    1397.1488   -23228.936   -24673.521    5.8724151    653.80691    132.89488   -769.08454    42.344564    42.344564    84.689128 
   49800    1401.0706   -23228.809   -24677.448    -338.4463    -564.0947   -715.10422    263.86003    42.349727    42.349727    84.699454 
   49900    1400.8532   -23228.532   -24676.946   -203.33485   -227.23368   -832.42316    449.65228    42.354554    42.354554    84.709108 
   50000    1382.8822    -23228.24   -24658.074   -155.69873   -156.69528    32.255971   -342.65689    42.358344    42.358344    84.716689 
Loop time of 1403.08 on 1 procs for 50000 steps with 8000 atoms

Pair  time (%) = 1263.6 (90.0592)
Neigh time (%) = 98.9007 (7.04885)
Comm  time (%) = 8.17858 (0.582903)
Outpt time (%) = 0.616163 (0.0439151)
Other time (%) = 31.7812 (2.26511)

Nlocal:    8000 ave 8000 max 8000 min
Histogram: 1 0 0 0 0 0 0 0 0 0
Nghost:    8244 ave 8244 max 8244 min
Histogram: 1 0 0 0 0 0 0 0 0 0
Neighs:    269367 ave 269367 max 269367 min
Histogram: 1 0 0 0 0 0 0 0 0 0

Total # of neighbors = 269367
Ave neighs/atom = 33.6709
Neighbor list builds = 5000
Dangerous builds = 0
unfix		1

# Melt half the system
region  liquid block INF INF INF INF INF ${nzhalf}
region  liquid block INF INF INF INF INF 10
group	liquid_group region liquid
3998 atoms in group liquid_group

# Heat up one side to Tmelt to make sure it is melted
fix 2 liquid_group npt temp ${Tmelt} ${Tmelt} 1 z 0 0 10 drag 1.0
fix 2 liquid_group npt temp 2000 ${Tmelt} 1 z 0 0 10 drag 1.0
fix 2 liquid_group npt temp 2000 2000 1 z 0 0 10 drag 1.0
run		${eqsteps}
run		50000
Memory usage per processor = 5.95825 Mbytes
Step Temp TotEng PotEng Press Pxx Pyy Pzz Lx Ly Lz 
   50000    1382.8822    -23228.24   -24658.074   -155.69873   -156.69528    32.255971   -342.65689    42.358344    42.358344    84.716689 
   50100    1389.4623   -23226.188   -24662.825   -163.22603    66.674035    215.74862   -772.10073    42.358344    42.358344    84.716628 
   50200    1380.7668   -23220.864    -24648.51    173.28048    206.38849    943.61708   -630.16414    42.358344    42.358344    84.716202 
   50300    1389.6998   -23214.535   -24651.418    112.30178    194.46851    365.05699   -222.62015    42.358344    42.358344    84.715422 
   50400    1393.4647   -23208.717   -24649.493    125.97143   -434.44189     631.2794    181.07678    42.358344    42.358344    84.714433 
   50500    1394.9083   -23203.092    -24645.36    447.01888    203.19361    1053.4569    84.406123    42.358344    42.358344    84.713478 
   50600    1409.4599   -23197.093   -24654.407    339.66605      411.154    1135.0637   -527.21958    42.358344    42.358344    84.712595 
   50700    1411.0819   -23190.701   -24649.692     414.0712    199.96232    1181.3391   -139.08779    42.358344    42.358344    84.711669 
   50800    1407.9187   -23184.174   -24639.895    673.62588    66.373179    1713.5768    240.92772    42.358344    42.358344    84.710758 
   50900    1420.1743   -23177.538    -24645.93    348.11848   -41.856065    994.48302     91.72849    42.358344    42.358344    84.710064 
   51000    1408.3113    -23170.84   -24626.966    1305.8202    1429.9953    1856.6924     630.7728    42.358344    42.358344    84.709646 
   51100    1419.5678   -23164.141   -24631.906    875.30275    1109.7674    1340.7235    175.41736    42.358344    42.358344    84.709549 
   51200    1413.4376   -23157.377   -24618.803    1276.1254    1509.7637     1631.813    686.79951    42.358344    42.358344    84.709665 
   51300    1430.0692   -23150.582   -24629.205    1354.4645    1246.4615     2277.811    539.12092    42.358344    42.358344    84.710061 
   51400    1435.9254   -23143.729   -24628.407    1494.8151    1208.3072    2042.7391    1233.3991    42.358344    42.358344    84.710746 
   51500     1442.064   -23136.916    -24627.94    1431.7489    575.31323    2432.5573    1287.3763    42.358344    42.358344    84.712112 
   51600     1431.952    -23130.09   -24610.659    1595.4207    1414.7707     1674.955    1696.5364    42.358344    42.358344    84.714311 
   51700    1437.6537   -23123.222   -24609.687    1930.3008    1526.6163    2247.8466    2016.4396    42.358344    42.358344    84.717329 
   51800     1445.189   -23116.372   -24610.628    1812.9708    1572.6869    2165.3576    1700.8678    42.358344    42.358344     84.72133 
   51900    1448.7393   -23109.487   -24607.414    2151.9961    1395.1131    2460.8285    2600.0467    42.358344    42.358344    84.726191 
   52000    1449.2035   -23102.585   -24600.992    2240.9878      2158.92    2474.8699    2089.1736    42.358344    42.358344    84.732171 
   52100    1458.5996   -23095.688    -24603.81    2007.5162    1274.1968    3150.1875    1598.1644    42.358344    42.358344    84.739199 
   52200    1447.0874    -23088.74   -24584.959    2407.4154    1636.8583     3026.666     2558.722    42.358344    42.358344    84.747206 
   52300    1463.0525   -23081.832   -24594.558    2091.8881     1446.334    2965.2294    1864.1008    42.358344    42.358344    84.756334 
   52400    1464.0365   -23074.913   -24588.656    2286.5896    1944.3805    3181.2622     1734.126    42.358344    42.358344    84.766379 
   52500    1463.6515   -23067.964   -24581.309    2577.8973    2129.9436    3314.7683      2288.98    42.358344    42.358344    84.777151 
   52600    1465.5358   -23061.055   -24576.349    2651.7754    2197.5504    3469.6288    2288.1472    42.358344    42.358344    84.788798 
   52700    1472.4617    -23054.11   -24576.564    2400.0174    2425.9527    3044.0352    1730.0642    42.358344    42.358344    84.801504 
   52800    1477.1534   -23047.169   -24574.475     2594.644    2651.4595    3592.9098    1539.5626    42.358344    42.358344    84.815212 
   52900    1482.8342   -23040.188   -24573.367    2574.9181    2665.9035    3207.3794    1851.4713    42.358344    42.358344    84.829685 
   53000    1480.5628   -23033.249    -24564.08    2703.9277    2738.4443    3225.8148    2147.5241    42.358344    42.358344    84.844863 
   53100    1491.9391   -23026.291   -24568.884    2776.1818    2918.6924    2916.4786    2493.3746    42.358344    42.358344    84.860952 
   53200    1477.8599   -23019.353   -24547.389    3018.2661    3439.9668     2664.001    2950.8306    42.358344    42.358344    84.878152 
   53300    1476.9324     -23012.4   -24539.477    3106.9217    3295.0222    3571.2683    2454.4748    42.358344    42.358344    84.896446 
   53400     1505.641   -23005.432   -24562.192    2403.6596    2357.9562    3315.3937    1537.6288    42.358344    42.358344    84.915586 
   53500    1500.0913   -22998.501   -24549.523    2645.9552    2007.1545    3102.4431    2828.2679    42.358344    42.358344    84.935424 
   53600    1490.8366    -22991.58   -24533.033    3289.1761    2455.8982     3789.056     3622.574    42.358344    42.358344    84.956406 
   53700     1504.381     -22984.6   -24540.058    2803.1917    3036.7413    2718.4521    2654.3816    42.358344    42.358344    84.978775 
   53800    1509.5189   -22977.651   -24538.421    2546.5222     2404.067    3455.0418    1780.4578    42.358344    42.358344      85.0021 
   53900    1517.1143   -22970.657   -24539.281    2600.7652    2379.7994    3018.5281     2403.968    42.358344    42.358344    85.025953 
   54000    1521.9543   -22963.678   -24537.306    2614.1035    3135.5749    3287.9436    1418.7921    42.358344    42.358344    85.050419 
   54100    1509.7909   -22956.682   -24517.733    2895.2915    2720.5843    3836.9639    2128.3264    42.358344    42.358344     85.07537 
   54200    1527.4609   -22949.728   -24529.049     2497.187    3199.1995    3351.5054    940.85611    42.358344    42.358344    85.100791 
   54300     1517.933   -22942.711    -24512.18    2893.7911    3976.1448    3120.7631    1584.4654    42.358344    42.358344    85.126286 
   54400    1531.1932   -22935.757   -24518.937    2533.6108    2883.3549    2811.6477    1905.8298    42.358344    42.358344    85.151976 
   54500    1522.3301   -22928.798   -24502.814    2907.6607    3148.3495    3784.9645    1789.6681    42.358344    42.358344    85.177957 
   54600    1543.5798   -22921.838   -24517.825    2263.6629    2704.7302    3349.6449    736.61371    42.358344    42.358344    85.204221 
   54700    1533.1205   -22914.856   -24500.028     2643.395    2180.7006    4179.6699    1569.8145    42.358344    42.358344     85.23057 
[...]
  136300    1392.9195   -23206.771   -24646.983    512.32047   -204.58063    925.39883    816.14321    42.358344    42.358344    84.676296 
  136400    1397.5266   -23206.872   -24651.847    506.13337    344.44764    337.63153    836.32094    42.358344    42.358344     84.67289 
  136500     1406.688   -23206.962    -24661.41    247.25986   -436.93013    1466.7113   -288.00162    42.358344    42.358344    84.670004 
  136600     1409.465   -23207.054   -24664.373    257.32865   -495.08404    274.30868    992.76131    42.358344    42.358344     84.66748 
  136700    1402.0247   -23207.132   -24656.758    299.80375   -122.49699    944.61682    77.291421    42.358344    42.358344    84.665672 
  136800     1405.816   -23207.189   -24660.735    320.87095   -237.42841    738.33726    461.70401    42.358344    42.358344    84.664113 
  136900    1407.2738   -23207.236    -24662.29     57.77422   -564.62558    1163.7895   -425.84129    42.358344    42.358344    84.662795 
  137000    1402.6159   -23207.331   -24657.568    269.59698   -93.386428     333.5974    568.57996    42.358344    42.358344     84.66141 
  137100    1409.3672   -23207.437   -24664.655    290.37018   -382.82636    426.05438    827.88252    42.358344    42.358344    84.660344 
  137200    1404.4626   -23207.541   -24659.687    426.72418    634.10582    595.71318    50.353548    42.358344    42.358344    84.659671 
  137300    1395.0864    -23207.63   -24650.082    550.95731     430.4249    1296.6501   -74.203067    42.358344    42.358344    84.659093 
  137400    1402.9639   -23207.631   -24658.228    375.02962    45.438921    1112.1557   -32.505767    42.358344    42.358344    84.658633 
  137500    1405.6217   -23207.633   -24660.978    241.03038    459.95351   -226.86636    490.00399    42.358344    42.358344    84.658387 
  137600    1398.1379   -23207.604   -24653.211    383.09583    163.49143    916.06266    69.733399    42.358344    42.358344    84.658711 
  137700    1401.4726   -23207.522   -24656.578    534.41444    81.115248    1093.2481    428.87996    42.358344    42.358344    84.659504 
  137800    1397.6178   -23207.462   -24652.532    445.39712   -331.62589    1004.2789    663.53828    42.358344    42.358344    84.660831 
  137900    1405.4032   -23207.413   -24660.532     162.1317   -5.2368655    445.14508    46.486875    42.358344    42.358344    84.662788 
  138000    1387.8771    -23207.36   -24642.358    782.28622    515.77245    976.40094    854.68527    42.358344    42.358344    84.665061 
  138100    1394.7455   -23207.289   -24649.389    486.30642    828.12231    691.61656   -60.819597    42.358344    42.358344    84.667733 
  138200    1385.5626   -23207.222   -24639.827    875.53619     768.3575    523.25403     1334.997    42.358344    42.358344    84.670484 
  138300    1405.0244    -23207.13   -24659.858    299.31572    341.35292    779.59361   -222.99938    42.358344    42.358344    84.673696 
  138400    1400.1614   -23207.052   -24654.752    127.34015    102.66271    850.04441   -570.68667    42.358344    42.358344    84.676779 
  138500    1410.4459   -23207.038   -24665.371    93.674506    687.42787   -409.11023    2.7058772    42.358344    42.358344    84.679492 
  138600    1414.2518   -23207.066   -24669.334     -56.9418    13.692564   -143.90331   -40.614654    42.358344    42.358344    84.682109 
  138700     1401.883   -23207.131    -24656.61    304.38891   -380.63274     919.8191    373.98036    42.358344    42.358344    84.684612 
  138800    1396.5236   -23207.206   -24651.144    410.41208   -911.23412    1390.3862    752.08411    42.358344    42.358344     84.68714 
  138900    1401.9038    -23207.26   -24656.761     275.3859   -714.68288    1141.7962    399.04437    42.358344    42.358344    84.689956 
  139000    1395.4458   -23207.295   -24650.119    461.11148    38.974005    1695.2812   -350.92075    42.358344    42.358344    84.692737 
  139100    1396.6004   -23207.295   -24651.312   -19.354641    111.39991     886.9132    -1056.377    42.358344    42.358344    84.695015 
  139200    1411.4018   -23207.288   -24666.609   -137.78296   -766.69409    796.22551    -442.8803    42.358344    42.358344    84.696772 
  139300    1404.1626   -23207.269   -24659.106   -18.036463   -611.37032    360.72266    196.53826    42.358344    42.358344    84.698409 
  139400    1402.4252   -23207.256   -24657.296   -100.23971   -729.72695    918.36896   -489.36114    42.358344    42.358344    84.700148 
  139500    1392.0968   -23207.249    -24646.61    516.10901     706.6296    1225.0732   -383.37574    42.358344    42.358344    84.701665 
  139600    1392.1649   -23207.226   -24646.658     619.0959    646.84502    960.01488     250.4278    42.358344    42.358344    84.702808 
  139700    1401.2286   -23207.187    -24655.99    316.84387    403.13523    625.96222   -78.565853    42.358344    42.358344    84.703845 
  139800    1397.4791   -23207.106   -24652.032    251.62496    373.90937    443.44418    -62.47865    42.358344    42.358344    84.704917 
  139900    1392.8529   -23206.993   -24647.136      439.805    599.22705    400.86998    319.31797    42.358344    42.358344    84.706084 
  140000     1406.996   -23206.862   -24661.628   -130.08296   -583.36216    155.53125    37.582023    42.358344    42.358344    84.707526 
  140100    1399.0923   -23206.738   -24653.332    247.50915   -447.16819    1054.0466     135.6491    42.358344    42.358344    84.709227 
  140200     1395.589   -23206.593   -24649.565    228.34287   -338.81701    1275.0351   -251.18947    42.358344    42.358344    84.710937 
  140300     1399.556    -23206.46   -24653.534     9.709513    82.077288    384.89726   -437.84601    42.358344    42.358344    84.712366 
  140400    1403.8121   -23206.406    -24657.88   -228.48813   -333.85505    443.30198   -794.91133    42.358344    42.358344    84.713334 
  140500    1401.2269   -23206.399   -24655.201    223.55397   -1092.8204    791.07391    972.40844    42.358344    42.358344    84.713897 
  140600    1396.2658     -23206.4   -24650.072    192.22959    -625.3205     1126.663    75.346297    42.358344    42.358344    84.714959 
  140700    1404.5304   -23206.431   -24658.648   -7.1667428    353.68604     48.09739   -423.28365    42.358344    42.358344    84.716119 
  140800    1403.5843   -23206.441   -24657.679    61.723092   -394.40328    693.51041   -113.93786    42.358344    42.358344    84.717356 
  140900    1398.4471    -23206.44   -24652.367    -130.0323   -263.83367    754.52854   -880.79177    42.358344    42.358344    84.718603 
  141000    1404.2494   -23206.513   -24658.439   -63.419602    664.79852   -324.56747   -530.48986    42.358344    42.358344    84.719195 
  141100    1401.7974   -23206.562   -24655.954    370.83665   -357.35743    1555.5588   -85.691391    42.358344    42.358344    84.719399 
  141200    1389.9438   -23206.563   -24643.698    281.50032    40.334807    913.09825   -108.93211    42.358344    42.358344    84.719571 
  141300    1407.8019   -23206.552   -24662.152   -310.73587   -600.33252   -21.859739   -310.01536    42.358344    42.358344    84.719634 
  141400    1406.4631   -23206.574   -24660.789   -64.339399   -691.27578    595.28141    -97.02383    42.358344    42.358344    84.719534 
  141500    1415.0483   -23206.592   -24669.684   -271.97659    230.60005   -24.278836    -1022.251    42.358344    42.358344    84.719472 
  141600    1411.8795    -23206.58   -24666.395   -178.55128   -558.63501    208.40666   -185.42551    42.358344    42.358344    84.719067 
  141700    1402.9375   -23206.644   -24657.213   -128.81331   -336.22254   -315.62758     265.4102    42.358344    42.358344    84.718413 
  141800    1405.6839   -23206.734   -24660.144   -96.703121   -751.09312     349.3511    111.63266    42.358344    42.358344    84.717849 
  141900    1406.0976   -23206.796   -24660.634   -22.046004   -330.16688    575.41936   -311.39049    42.358344    42.358344    84.717354 
  142000    1398.5237   -23206.868   -24652.874    122.93943   -793.76053    1170.1453   -7.5664573    42.358344    42.358344    84.716868 
  142100    1398.6911   -23206.876   -24653.055    13.185872    333.42993   -27.265661   -266.60665    42.358344    42.358344     84.71657 
  142200    1402.2568   -23206.867   -24656.733    40.372047    47.734568    560.31691   -486.93534    42.358344    42.358344    84.715993 
  142300    1386.4356   -23206.848   -24640.356    368.40591    571.71938    1006.9331   -473.43479    42.358344    42.358344    84.715144 
  142400    1399.5244   -23206.791   -24653.832    66.264018    460.30458    383.54326   -645.05579    42.358344    42.358344    84.713863 
  142500    1401.0727   -23206.744   -24655.385   -126.23818    367.75926    413.09954   -1159.5733    42.358344    42.358344    84.712074 
  142600    1404.4781   -23206.706   -24658.869   -128.58591   -425.07754    566.87785   -527.55803    42.358344    42.358344    84.709573 
  142700     1398.582   -23206.696   -24652.762    23.437728    224.99728    238.07602   -392.76012    42.358344    42.358344    84.706693 
  142800    1403.9601   -23206.771   -24658.398   -76.842043    417.72422   -74.679868   -573.57048    42.358344    42.358344    84.703571 
  142900     1399.996   -23206.897   -24654.425    262.34398    274.42147    209.15414    303.45634    42.358344    42.358344    84.700092 
  143000    1386.3218   -23207.017   -24640.407    667.03024     545.2896    1225.8173    229.98378    42.358344    42.358344    84.696748 
  143100      1406.94   -23207.057   -24661.765   -1.2685534   -76.718706    445.69906   -372.78601    42.358344    42.358344    84.693622 
  143200     1398.375   -23207.076   -24652.929    184.44241    125.05978    718.88714    -290.6197    42.358344    42.358344    84.690448 
  143300    1404.0378   -23207.111   -24658.819   -24.839706    -977.8937    452.99983    450.37476    42.358344    42.358344    84.687218 
  143400    1403.1927   -23207.176    -24658.01    189.43788    230.19593   -140.70217    478.81989    42.358344    42.358344    84.684204 
  143500    1403.1534   -23207.264   -24658.057    206.48467    694.51582   -185.13382    110.07202    42.358344    42.358344    84.681551 
  143600      1394.58   -23207.361    -24649.29    292.54675   -210.90808    1409.2668   -320.71849    42.358344    42.358344    84.679084 
  143700    1395.8596   -23207.446   -24650.698      748.875    940.20479    1287.4686    18.951609    42.358344    42.358344    84.676412 
  143800    1406.7762   -23207.527   -24662.066    195.40718   -411.14268    1076.3334   -78.969212    42.358344    42.358344    84.673604 
  143900    1405.0445   -23207.609   -24660.358    272.57965    190.91507    652.07977   -25.255888    42.358344    42.358344    84.670694 
  144000    1397.2598   -23207.658   -24652.358     627.4351    84.528413    1352.2519      445.525    42.358344    42.358344     84.66797 
  144100    1397.5807    -23207.68   -24652.711    775.68222   -1.0829337    1358.5012     969.6284    42.358344    42.358344    84.665662 
  144200    1397.8645   -23207.674   -24652.999     595.1256    703.65595    756.02756    325.69329    42.358344    42.358344    84.663942 
  144300    1398.6778   -23207.638   -24653.804     472.9212   -81.336209    1411.0051    89.094691    42.358344    42.358344    84.662392 
  144400    1401.4918   -23207.658   -24656.733    203.17331   -142.39217    1223.2521   -471.33996    42.358344    42.358344    84.660681 
  144500    1404.1785   -23207.684   -24659.537     213.8929   -154.74333    915.03421   -118.61218    42.358344    42.358344    84.658852 
  144600     1398.556   -23207.729   -24653.769    407.42309    409.35057    521.32264    291.59604    42.358344    42.358344    84.657046 
  144700    1404.7039   -23207.753   -24660.149    543.54194    790.43263    1461.0469   -620.85378    42.358344    42.358344    84.655405 
  144800    1399.8652   -23207.753   -24655.146    716.97865    1353.2341    600.67816    197.02371    42.358344    42.358344    84.653733 
  144900    1380.8313   -23207.704   -24635.417    1140.9864    897.48931    1466.6235    1058.8463    42.358344    42.358344    84.652423 
  145000    1400.1611   -23207.663   -24655.362    248.26934   -40.127415    1006.4517   -221.51629    42.358344    42.358344    84.651597 
  145100    1398.3226    -23207.59   -24653.388    522.74778   -65.401263    567.31935    1066.3252    42.358344    42.358344    84.651043 
  145200     1412.953   -23207.486   -24668.411    189.04143    544.05903   -209.87125    232.93652    42.358344    42.358344    84.651393 
  145300    1401.8173   -23207.407   -24656.818    498.20797     218.1035     827.4105     449.1099    42.358344    42.358344    84.652304 
  145400    1403.2472   -23207.398   -24658.288    353.89008    594.88641    617.15477   -150.37094    42.358344    42.358344    84.653382 
  145500    1398.3158   -23207.416   -24653.208    452.83486   -50.140624     973.9224    434.72279    42.358344    42.358344    84.654354 
  145600    1386.5693   -23207.463   -24641.109    979.91697    1133.8238    1156.8722    649.05489    42.358344    42.358344    84.655748 
  145700    1402.3793   -23207.508   -24657.501     550.1865    14.667364     624.4781     1011.414    42.358344    42.358344    84.657496 
  145800    1405.3389   -23207.591   -24660.644     405.9148    177.66114    126.39554    913.68773    42.358344    42.358344    84.659682 
  145900    1400.1605   -23207.675   -24655.373    204.50327     145.5955    668.78329     -200.869    42.358344    42.358344    84.662427 
  146000    1396.6392   -23207.726   -24651.784     327.9594    227.46607    663.48399     92.92815    42.358344    42.358344    84.665187 
  146100    1394.0983   -23207.736   -24649.167    476.81849    337.95419     1242.457   -149.95567    42.358344    42.358344    84.667923 
  146200    1410.1447   -23207.746   -24665.768    186.97869    466.75071    93.713693   0.47166471    42.358344    42.358344    84.670594 
  146300    1408.2568   -23207.768   -24663.838     224.1196    499.43522    166.17881    6.7447519    42.358344    42.358344    84.673335 
  146400    1402.2187   -23207.786   -24657.613    171.09149   -74.584349    1095.0293   -507.17051    42.358344    42.358344    84.676137 
  146500    1406.5762   -23207.847   -24662.179    70.828639   -508.66385    533.39836    187.75141    42.358344    42.358344    84.678574 
  146600     1398.058   -23207.904   -24653.429    146.18158   -251.43999    208.32543    481.65929    42.358344    42.358344    84.680917 
  146700    1389.9397   -23207.953   -24645.083    344.21766    176.56276    1260.5118   -404.42159    42.358344    42.358344    84.683456 
  146800    1400.3253   -23207.946   -24655.815    230.30333   -721.40912    761.49019    650.82891    42.358344    42.358344    84.685907 
  146900    1405.3662   -23207.927   -24661.008    267.00093    291.00184    152.90687    357.09408    42.358344    42.358344    84.688639 
  147000    1402.6814   -23207.942   -24658.247    67.572725   -332.33223    96.808839    438.24157    42.358344    42.358344    84.691508 
  147100    1395.4575   -23207.952   -24650.787     586.2856    231.04728    958.44236    569.36717    42.358344    42.358344    84.694542 
  147200    1389.3571   -23207.924   -24644.452    494.62654    810.08065    569.80825    103.99073    42.358344    42.358344    84.697979 
  147300    1402.7498   -23207.874    -24658.25    228.18435   -695.45947    1805.7689   -425.75636    42.358344    42.358344    84.701578 
  147400    1406.3486     -23207.8   -24661.897    215.91227   -306.93154    1070.7846   -116.11624    42.358344    42.358344    84.704947 
  147500    1399.3127   -23207.734   -24654.556    18.715837   -248.12672    1323.2733   -1018.9991    42.358344    42.358344     84.70789 
  147600    1399.4668     -23207.7   -24654.681    174.79145   -855.26325    2115.3848    -735.7472    42.358344    42.358344    84.710082 
  147700    1409.6365   -23207.682   -24665.178     51.26879   -514.94974    532.00984    136.74627    42.358344    42.358344    84.711717 
  147800    1401.4467   -23207.725   -24656.753    211.35518    797.34084    1145.2511   -1308.5264    42.358344    42.358344    84.713197 
  147900    1397.3973   -23207.807   -24652.649    257.28865    297.35303    295.08667    179.42623    42.358344    42.358344    84.713987 
  148000    1385.8232   -23207.853   -24640.728    395.13252    107.49311    100.51246    977.39199    42.358344    42.358344    84.714696 
  148100    1407.9663   -23207.859   -24663.628   -301.68986   -215.36415    470.15587   -1159.8613    42.358344    42.358344    84.715544 
  148200    1401.8477   -23207.836   -24657.279    1.8659859    188.55195   -339.33327    156.37928    42.358344    42.358344    84.715957 
  148300    1401.3221    -23207.79    -24656.69   -65.418636   -499.81753    856.26443   -552.70281    42.358344    42.358344    84.716487 
  148400    1386.7876    -23207.75   -24641.622      204.729   -262.74969    2072.6162   -1195.6795    42.358344    42.358344    84.716806 
  148500    1403.9101   -23207.667   -24659.243  -0.55733114   -616.39459    470.21912    144.50348    42.358344    42.358344    84.716468 
  148600    1389.1139   -23207.604   -24643.881    263.65351    199.64784    81.730435    509.58226    42.358344    42.358344    84.715951 
  148700    1401.0587   -23207.517   -24656.144    177.17404    23.484482    610.04717   -102.00953    42.358344    42.358344    84.715574 
  148800    1398.0976   -23207.429   -24652.994    253.37626    7.1644846     876.8732    -123.9089    42.358344    42.358344    84.715277 
  148900    1403.2013    -23207.38   -24658.223   -116.67321   -496.54395    331.53019   -185.00588    42.358344    42.358344    84.714957 
  149000    1396.6164    -23207.33   -24651.364     237.4705   -116.96481    446.39813    382.97817    42.358344    42.358344    84.714741 
  149100    1396.5801   -23207.288   -24651.284    246.29531    77.182471     675.5803   -13.876855    42.358344    42.358344    84.714708 
  149200    1401.0354   -23207.215   -24655.818    226.66991    171.51812    1252.9879   -744.49631    42.358344    42.358344    84.714572 
  149300    1401.9571   -23207.153   -24656.709    65.686127    291.80722    306.00025   -400.74908    42.358344    42.358344    84.714039 
  149400      1404.46    -23207.13   -24659.274     -217.283    -313.7064    541.64744   -879.79005    42.358344    42.358344    84.713002 
  149500    1405.4828   -23207.157   -24660.359    -89.77789    288.31136   -340.65947   -216.98556    42.358344    42.358344     84.71133 
  149600     1397.494   -23207.156   -24652.098    40.932539    343.37003    714.74799   -935.32041    42.358344    42.358344    84.709577 
  149700    1395.0889   -23207.091   -24649.546    227.22072   -106.34709    447.68506    340.32419    42.358344    42.358344    84.707421 
  149800    1408.7371   -23207.009   -24663.575    45.016847    409.86152    218.70209   -493.51306    42.358344    42.358344    84.705321 
  149900     1396.896   -23206.904   -24651.228    196.50964    -572.9805    785.05002    377.45938    42.358344    42.358344    84.703337 
  150000    1390.2735   -23206.785   -24644.261    455.22547    207.56688    746.33925    411.77029    42.358344    42.358344    84.701903 
Loop time of 1350.46 on 1 procs for 50000 steps with 8000 atoms

Pair  time (%) = 1220.63 (90.386)
Neigh time (%) = 96.9021 (7.1755)
Comm  time (%) = 7.92354 (0.58673)
Outpt time (%) = 0.616733 (0.0456684)
Other time (%) = 24.3902 (1.80607)

Nlocal:    8000 ave 8000 max 8000 min
Histogram: 1 0 0 0 0 0 0 0 0 0
Nghost:    8239 ave 8239 max 8239 min
Histogram: 1 0 0 0 0 0 0 0 0 0
Neighs:    269264 ave 269264 max 269264 min
Histogram: 1 0 0 0 0 0 0 0 0 0

Total # of neighbors = 269264
Ave neighs/atom = 33.658
Neighbor list builds = 5000
Dangerous builds = 0
