LAMMPS (13 Jan 2014)
dimension       3
boundary        p p p
units           metal

atom_style	atomic
neighbor	0.3 bin
neigh_modify	every 10 delay 0 check no

# Number of steps for the equilibration steps
variable        eqsteps equal 50000

# Number of steps to run our NPH simulation
variable        simsteps equal 200000

# Our trial melting temperature
variable	T equal 925.0
variable	T2 equal 2*${T}
variable	T2 equal 2*925

# Some high temperature to melt the crystal
variable	Tmelt equal 2000.0

#System size
variable	nx equal 10
variable	ny equal 10
variable	nz equal 20
variable	nzhalf equal ${nz}*0.5
variable	nzhalf equal 20*0.5
variable	a equal 4.050
variable	length equal ${nz}*${a}
variable	length equal 20*${a}
variable	length equal 20*4.05

lattice		fcc ${a}
lattice		fcc 4.05
Lattice spacing in x,y,z = 4.05 4.05 4.05

region         box block 0 ${nx} 0 ${ny} 0 ${nz}
region         box block 0 10 0 ${ny} 0 ${nz}
region         box block 0 10 0 10 0 ${nz}
region         box block 0 10 0 10 0 20
create_box     1 box
Created orthogonal box = (0 0 0) to (40.5 40.5 81)
  1 by 1 by 1 MPI processor grid
create_atoms   1 box
Created 8000 atoms

mass		1 26.9815

pair_style	eam/alloy
pair_coeff	* * Al_potential.alloy Al

velocity	all create ${T2} 1337
velocity	all create 1850 1337

# Create a dump file. This can be visualized with
# e.g. OVITO (http://www.ovito.org/)
dump		id all atom 1000 atomsdump

# 1 fs timestep
timestep	0.001
thermo_style	custom step temp etotal pe press pxx pyy pzz lx ly lz

# output every 100th timestep
thermo		100

# Equilibration the whole system to the trial melting temperature
fix		1 all npt temp ${T} ${T} 1 iso 0 0 3 drag 1.0
fix		1 all npt temp 925 ${T} 1 iso 0 0 3 drag 1.0
fix		1 all npt temp 925 925 1 iso 0 0 3 drag 1.0
run		${eqsteps}
run		50000
Memory usage per processor = 5.95314 Mbytes
Step Temp TotEng PotEng Press Pxx Pyy Pzz Lx Ly Lz 
       0         1850   -25264.441   -27177.252    11314.129     11174.38    11159.924    11608.081         40.5         40.5           81 
     100    889.52831   -25283.689   -26203.418    29185.584    29485.461     29218.46    28852.831     40.58911     40.58911     81.17822 
     200    870.36266   -25312.486   -26212.399    17695.532    18313.729    17637.371    17135.495    40.799996    40.799996    81.599991 
     300    867.95443   -25325.227    -26222.65    8487.8571    8463.8442    8285.8848    8713.8424    40.972424    40.972424    81.944848 
     400    859.19834   -25327.274   -26215.644    2825.6944    2558.4985    3244.4546      2674.13    41.089591    41.089591    82.179181 
     500    843.16802   -25324.889   -26196.684   -779.23438   -689.56271   -602.44725   -1045.6932    41.172279    41.172279    82.344557 
     600    843.74235    -25320.73   -26193.119   -3091.2867   -2792.6465   -3244.3894   -3236.8243    41.223173    41.223173    82.446345 
     700    835.84202   -25316.468   -26180.689   -3807.1167   -3781.8578   -3782.1897   -3857.3027    41.243268    41.243268    82.486537 
     800    850.42157   -25312.745    -26192.04   -3702.8367   -3483.4393   -4097.0968   -3527.9741    41.237886    41.237886    82.475772 
     900    846.98359   -25309.601   -26185.341   -2335.5281   -2192.7228   -2254.8697   -2558.9918    41.214161    41.214161    82.428322 
    1000    857.70375   -25306.527   -26193.351   -1014.9263   -871.84475   -942.80176   -1230.1323    41.182803    41.182803    82.365607 
    1100     862.5186   -25303.311   -26195.114    367.45732    687.45118    264.25828    150.66251    41.153519    41.153519    82.307038 
    1200    860.39289   -25300.014   -26189.619    1543.9514    2119.3789    1128.2621    1384.2132    41.133551    41.133551    82.267103 
    1300    868.85582   -25296.856   -26195.212    1763.1576    1851.5863    1736.5284    1701.3581    41.125814    41.125814    82.251628 
    1400     862.5081   -25293.911   -26185.703    1843.1397    1964.6798    1669.6006    1895.1387    41.129765    41.129765    82.259529 
    1500    855.82487   -25291.018     -26175.9    1397.9999    1404.4803     2004.952    784.56742    41.142827    41.142827    82.285653 
    1600    871.09368   -25288.045   -26188.714    241.54156    663.15101    453.55294   -392.07926    41.160906    41.160906    82.321811 
    1700    867.56412   -25284.969   -26181.989   -386.43338   -133.24151   -577.00422   -449.05443    41.178607    41.178607    82.357214 
    1800    862.76242   -25281.797   -26173.852   -875.03426   -985.76451   -951.69061   -687.64766    41.191817    41.191817    82.383635 
    1900    867.82431    -25278.62   -26175.909    -1091.169   -1367.3222   -1195.8969   -710.28781    41.198528    41.198528    82.397057 
    2000    862.83131   -25275.496   -26167.622   -981.21108   -985.74075   -1144.7475   -813.14502    41.198263    41.198263    82.396527 
    2100    863.20088    -25272.43   -26164.938   -562.34461   -374.45941   -682.08193    -630.4925    41.192222    41.192222    82.384444 
    2200    876.02523   -25269.384   -26175.152   -285.50812    -263.2151   -256.90687   -336.40238    41.183454    41.183454    82.366908 
    2300    860.54676   -25266.407   -26156.171    571.22083    962.52596    634.60962    116.52691     41.17463     41.17463     82.34926 
    2400    868.10476   -25263.458   -26161.037    794.18016    1305.5857    525.75127    551.20351    41.168857    41.168857    82.337714 
    2500    873.18039   -25260.584    -26163.41    801.02039    972.84546    712.88469    717.33103    41.167668    41.167668    82.335336 
    2600    873.68431   -25257.811   -26161.159    623.62593    698.36659    661.70749    510.80371    41.170752    41.170752    82.341505 
    2700    879.87022   -25255.117    -26164.86    338.78578    209.49219    578.25984     228.6053    41.176854    41.176854    82.353707 
    2800    884.53839   -25252.475   -26167.045    -104.8921    352.57962   -368.25804   -298.99788    41.184533    41.184533    82.369066 
    2900     880.7565   -25249.787   -26160.446   -237.59208   -235.81357   -149.32273   -327.63993     41.19228     41.19228     82.38456 
    3000    883.57669   -25247.081   -26160.656   -442.58941   -337.28058   -897.63917    -92.84847    41.198392    41.198392    82.396784 
    3100     879.9771   -25244.438   -26154.292   -495.48195    -636.8154   -801.41971   -48.210736    41.201381    41.201381    82.402762 
    3200    891.22734   -25241.819   -26163.306   -789.05441   -374.67558   -1190.2539   -802.23376    41.201249    41.201249    82.402497 
    3300    877.84924   -25239.256    -26146.91   -167.61668   -180.82527     -526.552    204.52723    41.198096    41.198096    82.396191 
    3400    890.90204   -25236.685   -26157.835   -221.03147   -340.12965   -243.31969   -79.645069     41.19402     41.19402    82.388039 
    3500    881.48042   -25234.158   -26145.567    308.67901    120.22213    76.901985    728.91291    41.189988    41.189988    82.379977 
    3600     879.1622    -25231.64   -26140.652    633.57659    1232.0714    248.67092    419.98743    41.187793    41.187793    82.375587 
    3700    901.64991   -25229.216   -26161.479    123.82217    196.45087   -165.19412    340.20976     41.18798     41.18798    82.375961 
    3800    886.68406   -25226.927   -26143.716    387.30853    656.83302    110.13195    394.96061    41.190073    41.190073    82.380146 
    3900     886.2109   -25224.633   -26140.932    337.88556     302.6648   -25.951947    736.94381    41.194429    41.194429    82.388857 
    4000    886.45024   -25222.381   -26138.928    75.408663    110.46799   -64.221145    179.97914    41.199513    41.199513    82.399027 
    4100    886.77981   -25220.141   -26137.029    19.047614   -392.17816    347.53032    101.79068    41.204218    41.204218    82.408436 
    4200    893.63252   -25217.897    -26141.87   -313.89815   -157.31913    110.58782   -894.96314    41.208003    41.208003    82.416006 
    4300    895.03338   -25215.675   -26141.096   -387.86039   -320.52356   -193.52495   -649.53265    41.209842    41.209842    82.419685 
    4400     899.6847   -25213.509    -26143.74   -492.52272   -229.24109   -569.08057    -679.2465    41.209435    41.209435    82.418869 
    4500    907.33377   -25211.349   -26149.488   -509.93991   -885.29105    35.279962   -679.80864    41.207472    41.207472    82.414945 
    4600    886.06567   -25209.283   -26125.432    303.83155     633.2202    98.687528    179.58691    41.204152    41.204152    82.408303 
    4700    897.69066   -25207.204   -26135.373    164.06499    152.00739    309.46185    30.725733     41.20177     41.20177     82.40354 
    4800    906.22188   -25205.135   -26142.125    24.567337    181.58254    206.69911   -314.57963    41.200876    41.200876    82.401752 
    4900     897.3358   -25203.161   -26130.964    297.31634    571.04854    421.49687    -100.5964    41.201201    41.201201    82.402402 
    5000    905.93973    -25201.17   -26137.868    44.695282    110.15981   -152.97701    176.90304    41.203536    41.203536    82.407072 
    5100     901.7092   -25199.313   -26131.637    91.398608   -283.20236    202.05184    355.34634    41.206334    41.206334    82.412667 
    5200    900.83049   -25197.507   -26128.922    0.5216575    57.570282    195.57553   -251.58084    41.209744    41.209744    82.419487 
    5300    886.16688   -25195.699   -26111.952    206.93346    610.57191   -199.42789    209.65636    41.213176    41.213176    82.426352 
    5400    910.22158   -25193.857   -26134.983   -528.95872   -561.10196   -594.98517   -430.78904    41.216061    41.216061    82.432123 
    5500     905.3006   -25192.074   -26128.111   -333.95653   -190.37003   -363.33747   -448.16211    41.216885    41.216885     82.43377 
    5600    903.14329   -25190.372   -26124.178   -125.95393   -395.36797    530.27609    -512.7699     41.21582     41.21582     82.43164 
    5700    902.64694   -25188.632   -26121.926     67.43748    128.84793    211.75142    -138.2869    41.214502    41.214502    82.429005 
    5800    905.71557    -25186.95   -26123.416     166.3644    262.11818    175.44508    61.529925    41.213139    41.213139    82.426279 
    5900    913.75287   -25185.284   -26130.061   -37.259624   -485.17147    277.91822    95.474381    41.212699    41.212699    82.425399 
    6000    897.65858   -25183.667   -26111.803    325.25943    852.56682    197.48423   -74.272754    41.212962    41.212962    82.425924 
    6100    908.09978    -25182.09   -26121.021    99.223227    386.86769    379.95294   -469.15095    41.213927    41.213927    82.427855 
    6200    915.17281   -25180.567   -26126.812   -162.46883   -398.65619     171.7664   -260.51669    41.215623    41.215623    82.431246 
    6300    900.32642   -25179.044   -26109.939    363.73938    470.39876    582.09089    38.728485    41.218023    41.218023    82.436046 
    6400    910.78934   -25177.566   -26119.278   -90.528531   -213.70421   -62.402659    4.5212746    41.220849    41.220849    82.441698 
    6500    911.46885   -25176.114   -26118.529   -195.80911   -656.34135    12.950944    55.963085    41.223108    41.223108    82.446215 
    6600    914.67589   -25174.683   -26120.414   -462.02201   -408.19977   -675.74979   -302.11646    41.224307    41.224307    82.448613 
    6700    899.17595   -25173.287   -26102.992    107.88113    97.697465     181.7542    44.191709    41.223909    41.223909    82.447818 
    6800    901.44656   -25171.902   -26103.954    122.95426    30.943878   -316.70823    654.62714    41.222508    41.222508    82.445017 
    6900    919.99475   -25170.536   -26121.767   -153.97996    226.85134   -572.79545   -115.99578    41.220549    41.220549    82.441098 
    7000    917.21636   -25169.193   -26117.551    -21.51186    3.1499241   -127.78515    60.099648    41.219075    41.219075     82.43815 
    7100    917.92617    -25167.88   -26116.971    62.133495    187.30846    -258.1928    257.28482    41.218596    41.218596    82.437191 
    7200    916.08463   -25166.624   -26113.811    142.00785   -323.08785    154.47087    594.64054    41.219303    41.219303    82.438607 
    7300    910.82662   -25165.425   -26107.176    245.02466    690.50448   -372.36063    416.93012    41.221056    41.221056    82.442113 
    7400    921.30669    -25164.26   -26116.847   -106.90085    -198.5175    285.10484   -407.28988    41.223877    41.223877    82.447754 
    7500    914.56228   -25163.138   -26108.751    21.124112   -421.99729    348.04041    137.32922    41.226784    41.226784    82.453569 
    7600    909.90561   -25162.087   -26102.886    5.3231525   -394.47205    503.53063   -93.089121    41.229128    41.229128    82.458257 
    7700    921.43512   -25161.026   -26113.746   -443.91837   -170.74651   -794.38829    -366.6203    41.230711    41.230711    82.461422 
    7800    912.74147   -25159.992   -26103.722   -105.82957    163.46487   -239.42438   -241.52919    41.230762    41.230762    82.461524 
    7900     907.7108   -25158.974   -26097.503   -16.435006   -71.548497    218.68527   -196.44179    41.229497    41.229497    82.458994 
    8000    920.79224   -25157.924   -26109.979   -134.58109    -479.4281    50.992662    24.692164    41.227753    41.227753    82.455506 
    8100    912.68541    -25156.92   -26100.593     253.4362     354.5052    211.86558    193.93783    41.225649    41.225649    82.451298 
    8200     922.5223   -25155.916    -26109.76    123.05708     189.4501    145.42854    34.292597     41.22466     41.22466     82.44932 
    8300     910.5315   -25154.955   -26096.401     350.4171    485.87842    569.38313   -4.0102648    41.224824    41.224824    82.449648 
    8400    912.67417   -25154.018   -26097.679    324.23044    127.56779    195.50808    649.61544    41.226248    41.226248    82.452496 
    8500    914.90864   -25153.112   -26099.084    283.67449    308.83519    438.44736    103.74093     41.22862     41.22862     82.45724 
    8600     915.8961   -25152.299   -26099.291    68.720847    135.51114    91.786603   -21.135198    41.231269    41.231269    82.462537 
    8700    919.06231   -25151.495   -26101.761   -127.22436    260.48751   -294.06431   -348.09628    41.233757    41.233757    82.467515 
    8800    921.36703   -25150.703   -26103.352   -240.03802    104.22293      -571.86     -252.477    41.235314    41.235314    82.470629 
    8900    917.44865   -25149.927   -26098.525   -121.28151   -225.95587    152.82054   -290.70919    41.235629    41.235629    82.471258 
    9000    918.08319   -25149.153   -26098.407   -57.758575    9.0233646   -481.29385    298.99476    41.234833    41.234833    82.469667 
    9100    921.21266   -25148.476   -26100.965   -32.116652     28.92649    283.63857   -408.91502    41.232716    41.232716    82.465432 
    9200    910.38718   -25147.826   -26089.122    420.45545    709.91009   -91.918416    643.37468    41.230348    41.230348    82.460695 
    9300    921.79524   -25147.163   -26100.255    36.284545    141.05697    2.4150034   -34.618336    41.228894    41.228894    82.457788 
    9400    927.66664   -25146.504   -26105.666    18.786733    257.72324    300.90627   -502.26931    41.228517    41.228517    82.457033 
    9500    918.92295   -25145.919   -26096.041    210.97572    124.11683    187.06542    321.74493    41.228772    41.228772    82.457544 
    9600    921.98483     -25145.3   -26098.588     149.2815     2.529498    473.46926   -28.154277    41.230336    41.230336    82.460671 
    9700    921.78235   -25144.777   -26097.855    106.82894   -285.86508    459.84482    146.50707    41.232073    41.232073    82.464147 
    9800    913.83912   -25144.273   -26089.139    296.08721   -58.841509    640.94948    306.15367    41.234134    41.234134    82.468268 
    9900    921.06133   -25143.794   -26096.127   -98.642873   -445.49727   -351.43419    501.00285    41.236238    41.236238    82.472475 
   10000    906.07366   -25143.304    -26080.14    246.34866    388.08934     430.3469    -79.39024    41.237703    41.237703    82.475405 
   10100     913.5625   -25142.817   -26087.397    5.3761239   -203.61503   -33.001353    252.74476    41.238288    41.238288    82.476576 
   10200    923.65118   -25142.307   -26097.318   -169.14619    169.58459   -378.81255   -298.21061    41.237972    41.237972    82.475943 
   10300    926.57834   -25141.811   -26099.848   -241.36147   -644.74612    24.826218   -104.16452     41.23687     41.23687    82.473739 
   10400    925.89511   -25141.347   -26098.678    16.908798   -55.473544    295.73351   -189.53357    41.235071    41.235071    82.470143 
   10500    917.28389   -25140.924   -26089.351    273.53872    28.836566    422.06197    369.71762     41.23355     41.23355    82.467101 
   10600    933.17232   -25140.559   -26105.414   -99.969285    20.160492   -289.70302   -30.365326    41.232569    41.232569    82.465139 
   10700    921.77023   -25140.251   -26093.318     188.9242    297.12143    337.34049   -67.689311    41.232047    41.232047    82.464094 
   10800    918.86871   -25139.954    -26090.02    172.97902   -10.009035    104.88833    424.05778    41.232499    41.232499    82.464997 
   10900    933.54132   -25139.702   -26104.939   -213.32333    131.14981     -344.283   -426.83679    41.233562    41.233562    82.467125 
   11000    919.40461   -25139.485   -26090.105    87.858384   -2.5912337    255.86582    10.300562    41.234707    41.234707    82.469414 
   11100     921.1393   -25139.278   -26091.692   -19.713477   -187.92934    279.66333   -150.87442    41.235878    41.235878    82.471755 
   11200    919.62876     -25139.1   -26089.952    74.328229    49.796878    110.45781        62.73    41.236729    41.236729    82.473459 
   11300    927.45522   -25138.917   -26097.861   -244.25065   -53.360527     114.1143   -793.50572    41.237264    41.237264    82.474527 
   11400    933.10792   -25138.707   -26103.495   -296.03851    148.95361   -341.74395   -695.32519    41.237459    41.237459    82.474918 
   11500    917.74884   -25138.529   -26087.437    101.14495    325.40687   -105.61104    83.639007    41.236836    41.236836    82.473673 
   11600    918.52943    -25138.34   -26088.056    165.17052    175.23037    261.64384     58.63735    41.236003    41.236003    82.472006 
   11700    924.68165   -25138.075   -26094.151   -6.4178729   -149.13932    486.84084   -356.95514    41.235795    41.235795     82.47159 
   11800    927.63319    -25137.84   -26096.969   -65.963027   -179.99533    -223.3063    205.41255    41.235539    41.235539    82.471079 
   11900    926.43571   -25137.609   -26095.499    2.7961848    196.45072   -240.08889    52.026717    41.235543    41.235543    82.471086 
   12000    921.57078   -25137.397   -26090.257    99.778999    271.70981   -76.261164    103.88835    41.235959    41.235959    82.471919 
   12100    931.95716   -25137.235   -26100.834   -142.30545   -61.677835   -320.86118   -44.377343    41.236783    41.236783    82.473567 
   12200    934.40731   -25137.142   -26103.275   -300.03161   -12.638207   -805.33102   -82.125595    41.237403    41.237403    82.474807 
   12300     927.2149   -25137.085    -26095.78   -31.964485    332.47537   -368.80948   -59.559343    41.237608    41.237608    82.475216 
   12400    918.48661   -25136.992   -26086.663    194.86516    196.34297    174.03723     214.2153    41.238016    41.238016    82.476033 
   12500    935.79131   -25136.873   -26104.436   -311.79456    213.93934   -333.52803   -815.79501    41.238512    41.238512    82.477024 
   12600    917.29942   -25136.825   -26085.268    188.27329     159.7249    22.875836    382.21913    41.237941    41.237941    82.475882 
   12700    919.64606   -25136.801    -26087.67    66.479168   -360.56739    451.38521    108.61969    41.237048    41.237048    82.474096 
   12800    920.08782   -25136.753    -26088.08    145.83413   -421.28677   -110.65027    969.43944    41.236052    41.236052    82.472104 
   12900     932.8039   -25136.679   -26101.154   -180.36852   -86.470561    199.01053   -653.64553    41.235451    41.235451    82.470901 
   13000     930.9085   -25136.627   -26099.142   -82.492109   -57.102797    69.211021   -259.58455    41.234874    41.234874    82.469748 
   13100    926.89198   -25136.567   -26094.929     36.83574   -448.19643    115.16283    443.54081      41.2347      41.2347    82.469399 
   13200    924.50433   -25136.612   -26092.505   -33.208688    40.682662    520.40521   -660.71393    41.234527    41.234527    82.469054 
   13300     922.6086   -25136.646   -26090.579    221.72786    301.75834    241.04083    122.38442    41.234879    41.234879    82.469759 
   13400    925.66256   -25136.665   -26093.756    -3.738157   -116.70517    85.061032    20.429666    41.235978    41.235978    82.471957 
   13500    921.83042   -25136.668   -26089.797     53.12779   -439.50643    338.51626    260.37353    41.237347    41.237347    82.474694 
   13600     926.6893   -25136.673   -26094.825   -32.759411    -119.0468    116.57307   -95.804506    41.238689    41.238689    82.477378 
   13700    907.79508   -25136.668   -26075.285    291.53808   -275.33066    842.15195    307.79295    41.239934    41.239934    82.479869 
   13800    929.60199    -25136.63   -26097.794   -241.92804    33.919869   -249.68452   -510.01946    41.240949    41.240949    82.481899 
   13900    930.64054   -25136.625   -26098.863   -281.70021   -777.83211    204.45598   -271.72451    41.240584    41.240584    82.481167 
   14000    926.56785   -25136.655   -26094.682   -116.63757   -20.598754   -335.51168    6.1977217    41.239041    41.239041    82.478082 
   14100    935.69401   -25136.665   -26104.128   -227.14239   -143.42261   -803.93299    265.92844    41.237472    41.237472    82.474943 
   14200    919.96606   -25136.703   -26087.904    276.41653    712.09774   -463.80896     580.9608    41.235966    41.235966    82.471931 
   14300    928.26413   -25136.734   -26096.515    164.85275    153.54261    107.22257    233.79308    41.235284    41.235284    82.470568 
   14400    930.81748   -25136.824   -26099.245    4.3879978    319.35385   -357.94243    51.752572    41.235198    41.235198    82.470395 
   14500    933.88591   -25136.906   -26102.499   -171.81948    183.47257   -244.90734   -454.02366    41.235955    41.235955     82.47191 
   14600      922.231   -25137.041   -26090.584    82.411777    93.184412   -240.45975    394.51067    41.236724    41.236724    82.473448 
   14700    928.38823    -25137.12   -26097.029   -111.14212   -258.00618   -197.20627    121.78608    41.237885    41.237885    82.475769 
   14800    929.14644   -25137.222   -26097.915   -242.79211   -650.18641   -111.20522    33.015299    41.238616    41.238616    82.477233 
   14900    932.94718   -25137.278     -26101.9   -409.08481   -527.69496    -315.3599   -384.19959    41.238892    41.238892    82.477783 
   15000    928.55538   -25137.373   -26097.455   -104.96189   -279.76682   -171.01909    135.90025    41.238142    41.238142    82.476284 
   15100    916.37233   -25137.451   -26084.936    300.33521    59.735343    490.10971    351.16058    41.236974    41.236974    82.473947 
   15200    926.88672   -25137.529   -26095.885    18.531744   -54.139223   -188.31813    298.05259    41.236063    41.236063    82.472126 
   15300    936.59551   -25137.587   -26105.982   -251.34211    -269.7502   -220.51481   -263.76133    41.235822    41.235822    82.471644 
   15400    920.55795    -25137.69   -26089.502    108.81082    325.57378   -167.35149    168.21018    41.235754    41.235754    82.471508 
   15500    936.63018   -25137.759   -26106.189   -156.26444   -664.88649    105.81206    90.281105    41.236275    41.236275     82.47255 
   15600    924.09705   -25137.848    -26093.32    84.932753    561.35157    -627.0425    320.48919    41.237145    41.237145    82.474289 
   15700    929.24372    -25137.89   -26098.683   -139.42689   -286.02359   -181.48812    49.231035    41.238246    41.238246    82.476492 
   15800    925.94441   -25138.013   -26095.395   -31.934899    25.646235   -350.46597    229.01504    41.238553    41.238553    82.477106 
   15900     939.6834   -25138.116   -26109.704   -362.78781   -366.79148   -108.90622   -612.66573    41.238555    41.238555     82.47711 
   16000    929.22347   -25138.244   -26099.016   -181.66687   -594.83142    99.350332   -49.519523    41.238059    41.238059    82.476119 
   16100    921.84834   -25138.328   -26091.475    26.838988    62.619585   -147.31341    165.21079    41.237405    41.237405     82.47481 
   16200    924.28542   -25138.362   -26094.029    59.724667   -374.31114    298.81045    254.67469    41.236979    41.236979    82.473959 
   16300     928.5135   -25138.434   -26098.473   -41.896737   -189.45283    327.78659   -264.02397    41.236199    41.236199    82.472397 
   16400    934.11804   -25138.487    -26104.32   -99.860202   -680.60423    16.127868    364.89576    41.235513    41.235513    82.471026 
   16500    917.45538   -25138.555   -26087.159     289.9114    202.93476    327.01055    339.78888     41.23493     41.23493    82.469861 
   16600    920.38176   -25138.567   -26090.198    156.27717    309.07215    127.45611    32.303254    41.235164    41.235164    82.470328 
   16700    933.00123   -25138.534   -26103.212   -313.22806   -452.81637   -462.50245   -24.365349     41.23614     41.23614     82.47228 
   16800    924.16433   -25138.514   -26094.056    16.861201    167.16595   -95.256061    -21.32629    41.236879    41.236879    82.473758 
   16900    918.27181   -25138.469   -26087.918    47.289401    235.42941    -13.54818   -80.013028    41.237851    41.237851    82.475701 
   17000    925.02949   -25138.424    -26094.86   -208.29944   -521.41542   -143.87467    40.391768    41.238502    41.238502    82.477004 
   17100    917.34416   -25138.415   -26086.905    89.281704    161.91949    53.638377    52.287246    41.237861    41.237861    82.475722 
   17200    925.41192   -25138.379    -26095.21   -74.015593   -323.92494    12.182072    89.696086    41.236325    41.236325     82.47265 
   17300    918.00262   -25138.338   -26087.509    212.24175    342.85477    186.32394    107.54653    41.234444    41.234444    82.468887 
   17400     920.2531   -25138.268   -26089.766    340.63584    455.51166    194.26364    372.13222    41.233244    41.233244    82.466488 
   17500    929.05348   -25138.248   -26098.844    30.629651      449.472    133.06042   -490.64347    41.232953    41.232953    82.465906 
   17600    916.13047   -25138.241   -26085.476    378.37479    493.31449    167.81746    473.99241    41.233438    41.233438    82.466877 
   17700    929.75318   -25138.262   -26099.582    9.4594508    385.53153   -9.0023446   -348.15084    41.234633    41.234633    82.469266 
   17800     929.7267   -25138.359   -26099.652   -145.34237    -424.0872    1.3876339   -13.327533    41.235836    41.235836    82.471673 
   17900    930.40997   -25138.412   -26100.411   -235.05049   -940.94292   -159.63066     395.4221    41.237412    41.237412    82.474823 
   18000    925.96085   -25138.437   -26095.836   -204.75198   -554.36432    603.39218   -663.28379    41.238537    41.238537    82.477074 
   18100    916.56261   -25138.461   -26086.143    120.94953   -169.56263   -223.13166    755.54288    41.238636    41.238636    82.477273 
   18200    925.05998   -25138.418   -26094.886   -18.668747   -146.89893    182.46281   -91.570121    41.238396    41.238396    82.476793 
   18300     918.3568   -25138.356   -26087.892    108.34054   -57.332383    373.24708     9.106907    41.237845    41.237845     82.47569 
   18400    930.91551   -25138.326   -26100.848   -269.19446   -107.65997    -340.1719   -359.75152    41.236789    41.236789    82.473578 
   18500    922.41896   -25138.299   -26092.036    206.53337   -74.260283    228.22908    465.63133    41.235392    41.235392    82.470783 
   18600    923.59631   -25138.252   -26093.206    63.112256   -212.62165    400.75959     1.198825    41.234779    41.234779    82.469558 
   18700    929.81936   -25138.183   -26099.571   -82.151446   -415.59865    447.72231     -278.578    41.234523    41.234523    82.469046 
   18800    933.05564   -25138.104   -26102.838   -40.134818    137.92096    80.392535   -338.71795    41.234665    41.234665     82.46933 
   18900    924.46157   -25138.058   -26093.907    163.91339    116.07301    429.78824   -54.121075    41.235328    41.235328    82.470657 
   19000    926.56501   -25138.013   -26096.037    132.40471    166.18055    65.476047    165.55754    41.236671    41.236671    82.473342 
   19100    925.06791   -25137.991   -26094.467   -92.398679   -211.39673    295.24277   -361.04207    41.238376    41.238376    82.476753 
   19200    936.22071   -25137.916   -26105.923   -497.79934   -477.49504   -252.99637   -762.90661    41.239926    41.239926    82.479852 
   19300    921.60136    -25137.87   -26090.762   -134.30247   -91.453988    143.61334   -455.06677    41.239895    41.239895    82.479791 
   19400    935.49764   -25137.775   -26105.034   -555.13345   -438.56203   -625.98872   -600.84961    41.239092    41.239092    82.478184 
   19500      921.971   -25137.644   -26090.917   -14.299251   -165.60159   -316.27817      438.982    41.237551    41.237551    82.475101 
   19600     925.2647   -25137.538   -26094.217   -123.78542    161.36106   -376.80424   -155.91307    41.235478    41.235478    82.470956 
   19700    918.77368   -25137.488   -26087.456    375.86397    309.16976   -23.885506    842.30767    41.233082    41.233082    82.466163 
   19800    927.66075   -25137.436   -26096.593    108.31925   -133.55062    397.58902    60.919356    41.231868    41.231868    82.463735 
   19900    923.99509   -25137.409   -26092.776    214.63179    291.13374    94.764648    257.99699    41.231582    41.231582    82.463164 
   20000    936.45722   -25137.435   -26105.686   -100.54224    -112.8707     232.6946   -421.45062    41.232251    41.232251    82.464502 
   20100    930.41977   -25137.474   -26099.483    42.802827   -301.06674    218.84446    210.63076    41.234025    41.234025     82.46805 
   20200    918.40062   -25137.505   -26087.087    178.62602    141.80701   -48.793571    442.86463    41.236491    41.236491    82.472982 
   20300    920.15046   -25137.546   -26088.937   -23.883815   -73.715928    271.68419    -269.6197    41.238834    41.238834    82.477669 
   20400    930.40369   -25137.561   -26099.553   -274.63892   -20.128535   -333.40399   -470.38424    41.240318    41.240318    82.480636 
   20500    913.76175   -25137.601   -26082.387    132.82297    102.80247    -204.2207    499.88715    41.240395    41.240395     82.48079 
   20600    920.50883   -25137.585   -26089.347    29.820717   -140.20393    -282.8942    512.56028     41.23986     41.23986     82.47972 
   20700    926.21851   -25137.537   -26095.202   -92.635266    -467.5262   -293.41883    483.03924    41.238731    41.238731    82.477462 
   20800    920.40298   -25137.525   -26089.178    38.340352   -69.121134    39.882623    144.25957    41.236718    41.236718    82.473435 
   20900    923.24207   -25137.476   -26092.064    72.835575   -136.00345    201.36662    153.14356    41.235009    41.235009    82.470017 
   21000    919.89051   -25137.416   -26088.539    297.13601    624.66719   -110.98195    377.72279     41.23383     41.23383     82.46766 
   21100    922.36896   -25137.331   -26091.016    287.81878   -397.04298    504.46148    756.03785    41.233661    41.233661    82.467322 
   21200    925.88469   -25137.243   -26094.563    74.134587   -203.20235    188.36038    237.24573    41.234773    41.234773    82.469547 
   21300    925.27373   -25137.201   -26093.889    52.156528   -320.82998    343.93627     133.3633    41.236357    41.236357    82.472715 
   21400    939.45361   -25137.163   -26108.513   -447.84425     -855.733   -152.07094   -335.72882    41.238283    41.238283    82.476566 
   21500    915.60377   -25137.144   -26083.834    222.64456     93.62653   -46.989202    621.29637    41.239564    41.239564    82.479128 
   21600    934.27449   -25137.078   -26103.073   -445.09924   -559.22607   -381.88473    -394.1869    41.240892    41.240892    82.481785 
   21700    916.46633   -25137.037   -26084.619   -26.915849   -582.05867    73.911522     427.3996    41.240962    41.240962    82.481925 
   21800    924.01434   -25136.984    -26092.37   -107.06586     380.0783   -561.92419    -139.3517    41.239932    41.239932    82.479864 
   21900    931.04719   -25136.905   -26099.563   -155.49963     15.75222   -185.97519   -296.27593    41.238221    41.238221    82.476442 
   22000    921.69536   -25136.808   -26089.797    106.31662    439.40286   -63.340331   -57.112685    41.236436    41.236436    82.472872 
   22100    917.80048   -25136.739     -26085.7    195.01523    222.43289    121.39191     241.2209    41.234794    41.234794    82.469588 
   22200    921.27221   -25136.734   -26089.285    347.29762    257.62371    591.06795    193.20119     41.23344     41.23344     82.46688 
   22300    929.65557   -25136.761    -26097.98    116.38657   -603.47812    859.88232    92.755523    41.233417    41.233417    82.466834 
   22400    935.33412   -25136.766   -26103.857    -75.40309   -273.80373     64.40627   -16.811811    41.234822    41.234822    82.469644 
   22500    919.72789   -25136.843   -26087.797    106.12807    -60.22906    252.45687    126.15642    41.236498    41.236498    82.472995 
   22600    919.81736   -25136.898   -26087.944    88.195617   -286.24268     757.9498   -207.12027    41.238244    41.238244    82.476487 
   22700    924.84122   -25136.957   -26093.198   -175.44698   -3.8674534   -226.54889   -295.92459    41.239677    41.239677    82.479355 
   22800    928.03115   -25136.946   -26096.485   -109.54096    140.10522   -209.36061    -259.3675    41.240741    41.240741    82.481481 
   22900    928.85026   -25136.965   -26097.352   -230.10304    -17.09004    74.992721   -748.21179    41.240752    41.240752    82.481505 
   23000    924.87024   -25136.954   -26093.226   -102.74951   -161.04524    309.40747   -456.61077    41.240061    41.240061    82.480122 
   23100    921.17638   -25136.984   -26089.436    20.713829    286.74448     443.6986   -668.30159    41.238417    41.238417    82.476834 
   23200    920.78456   -25136.968   -26089.015     210.6176      386.332    309.80386   -64.283058    41.236658    41.236658    82.473317 
   23300    931.49082   -25136.965   -26100.082    -43.70872   -349.56111    256.36979   -37.934841    41.235253    41.235253    82.470506 
   23400    931.09383   -25136.986   -26099.692    17.168022   -140.27249    -176.5857    368.36226    41.234356    41.234356    82.468713 
   23500    930.94607   -25137.002   -26099.555    -100.2792   -423.49208    233.51135   -110.85688    41.234481    41.234481    82.468961 
   23600    925.66566   -25137.009   -26094.103    55.598384   -473.23401    323.22946    316.79971    41.235201    41.235201    82.470402 
   23700    938.87482    -25137.07   -26107.821   -309.26177   -737.17268    -146.1587   -44.453938    41.235739    41.235739    82.471477 
   23800    927.39778   -25137.143   -26096.028   -71.428722   -138.76994    89.443799   -164.96002    41.236325    41.236325     82.47265 
   23900    918.06668   -25137.203   -26086.439    125.52822   -410.33892     779.4061    7.5174721    41.237113    41.237113    82.474225 
   24000    925.95525   -25137.239   -26094.632   -137.33478   -860.69518    244.91479    203.77604    41.237776    41.237776    82.475552 
   24100    919.23216   -25137.223   -26087.665    117.44632   -149.36233   -71.169186    572.87049    41.238284    41.238284    82.476569 
   24200    923.94536   -25137.211   -26092.526   -96.245428    107.87087   -156.93428   -239.67287    41.238679    41.238679    82.477357 
   24300    926.33298   -25137.168   -26094.952   -130.53989    128.20849    -118.2308   -401.59735     41.23898     41.23898     82.47796 
   24400    936.32659   -25137.176   -26105.292   -322.50769   -361.28936   -214.06558   -392.16812    41.238594    41.238594    82.477188 
   24500    927.42916   -25137.177   -26096.094   -73.309845   -300.10149    73.336279    6.8356781    41.237953    41.237953    82.475905 
   24600    920.12031   -25137.171   -26088.532   -29.107236   -265.05127    363.25838   -185.52882    41.237282    41.237282    82.474565 
   24700    936.72423   -25137.133   -26105.661   -346.53182   -91.670206   -583.83601   -364.08924    41.236504    41.236504    82.473008 
   24800     930.9378   -25137.126   -26099.671   -41.498962   -10.826093   -38.693231   -74.977563    41.235403    41.235403    82.470807 
   24900    920.00523   -25137.161   -26088.402    308.15087    279.95073    428.24882    216.25308    41.234437    41.234437    82.468874 
   25000    919.87567   -25137.257   -26088.364    300.92327    943.46998     -57.7664    17.066249    41.233856    41.233856    82.467713 
   25100    926.97727   -25137.381   -26095.831    6.0278939     590.5553   -325.05144   -247.42017    41.234127    41.234127    82.468254 
   25200    934.17207   -25137.459   -26103.348   -125.59524   -111.53748    -487.6072    222.35895    41.235414    41.235414    82.470828 
   25300     918.6155   -25137.591   -26087.395    167.88074    247.46233    91.774023    164.40588    41.236658    41.236658    82.473317 
   25400    927.01429   -25137.686   -26096.174   -58.363656   -108.02712   -56.632622   -10.431222    41.237864    41.237864    82.475728 
   25500    916.92283   -25137.765   -26085.819     140.9992   -47.371907    372.30266    98.066843    41.238648    41.238648    82.477296 
   25600    922.03165   -25137.802   -26091.138   -111.56963    -670.1022    328.57984    6.8134821    41.239074    41.239074    82.478148 
   25700    929.75107   -25137.844   -26099.162   -250.50392   -185.05135   -71.155273   -495.30515    41.238514    41.238514    82.477027 
   25800    921.06267   -25137.881   -26090.216   -47.602777    -376.9119    278.44643   -44.342857    41.237141    41.237141    82.474282 
   25900    927.13546   -25137.865   -26096.479   -94.930183    390.21376   -366.44361    -308.5607     41.23582     41.23582     82.47164 
   26000    921.93215   -25137.778   -26091.011    212.78761    697.49087    216.34904   -275.47709    41.234958    41.234958    82.469916 
   26100    918.75825   -25137.667   -26087.619     326.5703    394.85045    189.01598    395.84446    41.234862    41.234862    82.469725 
   26200    926.96216   -25137.604   -26096.038    32.066252    84.488256   -210.03808    221.74858    41.235247    41.235247    82.470494 
   26300    922.97247   -25137.569   -26091.878    90.314403    622.71729   -119.35513   -232.41895    41.235879    41.235879    82.471758 
   26400    917.86962   -25137.584   -26086.617    214.63701   -7.7537078    603.58122    48.083524    41.236657    41.236657    82.473315 
   26500    933.88498    -25137.56   -26103.152   -254.98317   -630.46243    161.08316   -295.57023    41.237723    41.237723    82.475446 
   26600    925.16916   -25137.571   -26094.151   -75.953036   -497.34407   -204.60737    474.09233    41.238135    41.238135    82.476271 
   26700    918.58099   -25137.579   -26087.348    159.97093    519.27575   -663.87648    624.51351    41.238095    41.238095     82.47619 
   26800    933.43299   -25137.522   -26102.647   -328.22695   -465.57296    127.86389   -646.97176    41.238341    41.238341    82.476682 
   26900    925.06458   -25137.516   -26093.988    11.834542   -4.7921581    135.99506   -95.699278    41.238084    41.238084    82.476168 
   27000     933.4833   -25137.476   -26102.652   -268.61208   -539.81181   -71.769129   -194.25531    41.238051    41.238051    82.476103 
   27100     920.6535   -25137.436   -26089.347    81.675777    442.67036    92.609217   -290.25224    41.237731    41.237731    82.475463 
   27200     925.2227   -25137.385    -26094.02      28.0298    119.61365   -49.435995    13.911743    41.237399    41.237399    82.474797 
   27300      927.774   -25137.334   -26096.607   -69.896972   -81.614396    18.359825   -146.43634     41.23698     41.23698    82.473959 
   27400    918.96688    -25137.29   -26087.458    244.77552    462.86975    314.15033   -42.693524    41.236526    41.236526    82.473052 
   27500    930.76769   -25137.284   -26099.653   -100.51923    603.71544   -389.30456   -515.96856     41.23623     41.23623     82.47246 
   27600    922.31096   -25137.277   -26090.902    167.34513    681.68274   -83.224537    -96.42281    41.235986    41.235986    82.471971 
   27700    932.99726   -25137.224   -26101.898   -336.58648   -869.63095   -198.94638    58.817885     41.23636     41.23636     82.47272 
   27800    931.14222   -25137.197   -26099.953    -203.8489   -6.5090808   -461.24326   -143.79436    41.236399    41.236399    82.472797 
   27900    920.97528   -25137.181   -26089.425    156.79193    346.17134   -181.62723    305.83167    41.236228    41.236228    82.472455 
   28000    930.99633   -25137.183   -26099.788   -63.039389   -181.26452   -316.86668    309.01303    41.236104    41.236104    82.472209 
   28100    925.50919   -25137.158    -26094.09    62.544726    410.85278   -10.191703    -213.0269    41.236417    41.236417    82.472834 
   28200    933.73347   -25137.129   -26102.564   -231.95576   -312.54099   -312.00057   -71.325714    41.237131    41.237131    82.474262 
   28300    937.66985   -25137.133   -26106.638   -288.58471   -541.63994    299.01084   -623.12503    41.237654    41.237654    82.475307 
   28400    911.68775   -25137.193   -26079.835    302.24259   -162.32346   -151.75246    1220.8037    41.237533    41.237533    82.475067 
   28500    922.23851   -25137.192   -26090.743    31.540114   -48.177601    257.11504   -114.31709    41.237621    41.237621    82.475242 
   28600    927.07775   -25137.231   -26095.785   -87.973006   -608.77915    161.52008    183.34005    41.237408    41.237408    82.474816 
   28700    933.87351   -25137.278   -26102.859   -131.02845   -593.26336    107.36482      92.8132     41.23696     41.23696     82.47392 
   28800    919.90501   -25137.329   -26088.467    146.32568    238.84247   -19.911301    220.04588    41.236707    41.236707    82.473415 
   28900    931.21953   -25137.309   -26100.146   -157.85335    322.44555   -895.29096    99.285369    41.237108    41.237108    82.474217 
   29000    912.29246    -25137.27   -26080.537    341.44156    736.61508    194.61062    93.098977    41.237683    41.237683    82.475365 
   29100    923.27948   -25137.179   -26091.806   -80.798297   -356.44335    575.53998   -461.49152    41.238543    41.238543    82.477086 
   29200    922.49652   -25137.165   -26090.982    8.0226519    317.47579   -723.20174    429.79391    41.238402    41.238402    82.476803 
   29300    921.37129   -25137.179   -26089.832    93.046373    416.53961   -559.90359    422.50309    41.237723    41.237723    82.475445 
   29400    936.01246   -25137.174   -26104.966   -354.54268   -103.68224   -210.10396   -749.84182      41.2369      41.2369      82.4738 
   29500    920.52083   -25137.153   -26088.927    132.70948     534.3915   -206.64721    70.384137    41.236019    41.236019    82.472038 
   29600    930.32532   -25137.129    -26099.04    15.582707   -297.03534   -22.284052    366.06752    41.235788    41.235788    82.471576 
   29700    936.95015   -25137.149    -26105.91   -161.49889    42.507569   -96.126527   -430.87771    41.236036    41.236036    82.472073 
   29800    920.31352   -25137.214   -26088.774    159.30238    599.03663   -99.073738   -22.055736    41.236524    41.236524    82.473049 
   29900    936.31821   -25137.227   -26105.335   -310.81716   -298.59734   -247.43344   -386.42071    41.237803    41.237803    82.475605 
   30000     922.3106   -25137.328   -26090.953   -25.447077   -10.816515    -241.3526    175.82788    41.238344    41.238344    82.476687 
   30100    921.71585   -25137.425   -26090.435    45.955554    286.22585   -544.06374    395.70455     41.23839     41.23839     82.47678 
   30200    911.93058   -25137.512   -26080.405    175.58628    531.37312   -467.36742    462.75313    41.237982    41.237982    82.475964 
   30300    912.43955   -25137.546   -26080.964    292.68835   -38.410148    103.49615    812.97906    41.237373    41.237373    82.474745 
   30400    919.28557   -25137.551   -26088.048    217.18304    -231.0327    325.42464    557.15718     41.23682     41.23682     82.47364 
   30500    925.04599   -25137.567    -26094.02     9.959303   -121.84177    575.18466   -423.46498    41.236622    41.236622    82.473245 
   30600    914.84605   -25137.536   -26083.443    206.46866   -31.634301    587.67394    63.366336    41.236751    41.236751    82.473502 
   30700    927.36505   -25137.491   -26096.342    26.260649    324.80975   -33.026455   -213.00135    41.236879    41.236879    82.473757 
   30800    923.80826   -25137.504   -26092.678   -9.1346231    176.71233   -218.07769    13.961494    41.236663    41.236663    82.473326 
   30900    922.20893   -25137.495   -26091.015    120.20808    88.842733    294.50212   -22.720605    41.236644    41.236644    82.473287 
   31000     931.9212    -25137.49   -26101.051    -153.3773    355.77896   -107.18954    -708.7213    41.236973    41.236973    82.473946 
   31100    924.52755   -25137.516   -26093.433    40.181428    258.09903     -51.7363   -85.818445    41.237162    41.237162    82.474323 
   31200    932.52587    -25137.51   -26101.697   -260.07306    96.520073   -280.89195    -595.8473    41.237947    41.237947    82.475895 
   31300    925.87837   -25137.507   -26094.821   -121.14517   -169.45332   -21.103732   -172.87847      41.2387      41.2387      82.4774 
   31400    931.41905   -25137.512   -26100.555   -239.45766     345.3336    39.370823   -1103.0774    41.239105    41.239105    82.478209 
   31500     932.5646   -25137.485   -26101.711   -266.63827   -28.264556   -158.13178   -613.51848    41.239265    41.239265     82.47853 
   31600    928.44136   -25137.449   -26097.413   -181.38637   -499.56859   -327.27999    282.68948    41.239058    41.239058    82.478116 
   31700    917.64882   -25137.446    -26086.25     160.3401    183.61245    35.342654    262.06519    41.238252    41.238252    82.476503 
   31800    923.23231    -25137.46   -26092.038   -22.691539    433.73386   -384.69347   -117.11501     41.23729     41.23729    82.474581 
   31900    936.43411   -25137.434   -26105.662   -392.09844   -67.467541   -402.36815   -706.45962    41.236295    41.236295     82.47259 
   32000    939.96268   -25137.367   -26109.243   -355.28603   -18.636766   -756.70243   -290.51889    41.235547    41.235547    82.471093 
   32100    919.65601   -25137.333   -26088.213    225.83709    161.71819    158.04625    357.74682    41.234806    41.234806    82.469611 
   32200    936.60232   -25137.315   -26105.716   -123.44451    371.19097   -403.99186   -337.53262    41.234721    41.234721    82.469441 
   32300    928.18615   -25137.351   -26097.051    6.2537081   -193.04477    133.03617    78.769728    41.235003    41.235003    82.470006 
   32400    932.43316   -25137.364   -26101.455   -224.45068    28.733092   -14.339201   -687.74592    41.235966    41.235966    82.471932 
   32500    918.34375   -25137.355   -26086.878     60.82047    92.526435    331.10784   -241.17287     41.23705     41.23705      82.4741 
   32600    934.54021   -25137.301   -26103.571   -322.26715    81.041559   -372.63126   -675.21176    41.238173    41.238173    82.476347 
   32700     926.4581   -25137.278   -26095.191   -153.73121   -181.53477   -388.81375    109.15489    41.238841    41.238841    82.477682 
   32800    935.10436    -25137.24   -26104.093   -341.16524   -730.35854   -154.06047   -139.07671    41.239166    41.239166    82.478333 
   32900    913.74177   -25137.202   -26081.967     197.4236    78.853467    404.68024    108.73709    41.239089    41.239089    82.478178 
   33000    934.03079   -25137.117    -26102.86   -167.52005   -338.00666   -223.38668    58.833202    41.238734    41.238734    82.477467 
   33100    919.33846   -25137.098    -26087.65    82.287709     739.4297   -762.33533    269.76876    41.237557    41.237557    82.475114 
   33200    918.83913   -25137.044    -26087.08    240.03474   -120.05602     638.8703    201.28993    41.236582    41.236582    82.473163 
   33300    929.58201   -25137.005   -26098.148    38.855128    161.86629    32.549698   -77.850604    41.236183    41.236183    82.472366 
   33400    929.86665   -25136.972   -26098.409   -140.15476   -206.08128    283.89926   -498.28227    41.236568    41.236568    82.473135 
   33500    921.77429   -25136.982   -26090.052    106.88638   -55.548995    491.54413     -115.336    41.236861    41.236861    82.473722 
   33600    938.25294   -25136.978   -26107.086    -423.2064    -211.1112   -183.55058   -874.95742    41.237286    41.237286    82.474573 
   33700    912.32218   -25137.005   -26080.303    307.43107    36.850049    811.43563    74.007542     41.23703     41.23703     82.47406 
   33800    934.20224   -25137.012   -26102.933   -364.74612   -135.57587    54.046936   -1012.7094    41.237051    41.237051    82.474102 
   33900    931.85447    -25137.05   -26100.542   -211.27515    182.86799     14.09165   -830.78509     41.23658     41.23658     82.47316 
   34000    920.25677   -25137.043   -26088.544    151.32417     828.6154   -54.273642   -320.36926    41.236399    41.236399    82.472797 
   34100     913.0785   -25137.069   -26081.148     287.3753    96.803793     632.5419     132.7802    41.236229    41.236229    82.472458 
   34200    928.67854   -25137.081    -26097.29   -100.55648    162.79999   -66.916372   -397.55306    41.236071    41.236071    82.472143 
   34300    923.60307   -25137.088   -26092.049    23.974918    86.798345     94.73072   -109.60431    41.235855    41.235855     82.47171 
   34400    919.97812   -25137.127    -26088.34    313.90464    334.78025    355.82305    251.11062    41.235233    41.235233    82.470466 
   34500    934.52606   -25137.114   -26103.369   -261.17946   -248.89567   -249.81878   -284.82392    41.235441    41.235441    82.470881 
   34600    929.62023   -25137.095   -26098.278   -55.442078    -387.9966   -105.98441    327.65477    41.235833    41.235833    82.471667 
   34700    921.89705   -25137.118   -26090.315    43.453888    144.76859   -100.68203    86.275106    41.236207    41.236207    82.472415 
   34800    926.95929   -25137.138    -26095.57   -51.101845    250.42647   -75.947316   -327.78469      41.2367      41.2367      82.4734 
   34900    929.66173   -25137.143   -26098.369   -181.62521   -85.620438   -133.92227   -325.33292    41.237218    41.237218    82.474437 
   35000    928.71191   -25137.188   -26097.432   -130.71912   -707.60456    151.44606    164.00114    41.237106    41.237106    82.474212 
   35100    925.33739   -25137.258   -26094.012    2.2066601   -76.817141    290.32372    -206.8866    41.236399    41.236399    82.472798 
   35200    923.82994   -25137.314   -26092.509    60.602944    216.58535    87.583583    -122.3601    41.235565    41.235565    82.471129 
   35300      923.976   -25137.361   -26092.708    67.034714    897.37543    129.43532   -825.70661    41.234945    41.234945    82.469891 
   35400    919.63538   -25137.402   -26088.261    141.35435   -181.86659    274.55864      331.371    41.234832    41.234832    82.469665 
   35500    916.52065   -25137.432    -26085.07    378.33186    247.75844     427.4484    459.78873    41.235155    41.235155    82.470311 
   35600    925.74774    -25137.45   -26094.629    47.082929   -462.59368    541.69484    62.147631    41.236321    41.236321    82.472643 
   35700    919.70655   -25137.414   -26088.346    29.320972   -334.95263    352.36599    70.549554    41.238139    41.238139    82.476278 
   35800    928.45185   -25137.364   -26097.339   -212.48587   -718.66392     533.7354   -452.52908    41.239666    41.239666    82.479331 
   35900     924.7932   -25137.343   -26093.535   -59.166248    -439.6539   -6.2665318    268.42169     41.24041     41.24041    82.480819 
   36000    928.02477   -25137.394   -26096.927   -191.85644    21.936682   -6.8976026    -590.6084    41.240105    41.240105     82.48021 
   36100    930.73634   -25137.424   -26099.761   -176.11705   -797.50473    78.211418    190.94218     41.23916     41.23916    82.478319 
   36200    925.77539   -25137.447   -26094.654   -86.332066   -233.37945   -11.375983   -14.240768     41.23758     41.23758     82.47516 
   36300     931.9365    -25137.51   -26101.088   -162.35849   -123.72932   -146.44063    -216.9055    41.235505    41.235505     82.47101 
   36400    920.86666   -25137.569   -26089.701    302.04534    448.87621    65.729885    391.52992    41.233727    41.233727    82.467453 
   36500     928.5014   -25137.615   -26097.641    54.255584    71.267263   -240.69627    332.19576    41.233233    41.233233    82.466465 
   36600    913.46483   -25137.687   -26082.165     397.7899    179.37365    674.28103    339.71503    41.233558    41.233558    82.467116 
   36700    934.26421   -25137.749   -26103.733   -123.20019      178.317   -381.02122   -166.89634    41.234659    41.234659    82.469318 
   36800    925.43613   -25137.818   -26094.674    47.377912   -312.60517    355.70927    99.029641    41.235864    41.235864    82.471728 
   36900    924.53408    -25137.83   -26093.753   -7.7537244    24.367238   -101.77474    54.146333    41.237482    41.237482    82.474965 
   37000     922.3009   -25137.881   -26091.496   -5.7898736    189.00623     229.0637   -435.43955    41.238551    41.238551    82.477102 
   37100    909.13144   -25137.974   -26077.972    325.78907    352.19445    267.67568    357.49707    41.238758    41.238758    82.477515 
   37200    925.11299   -25137.981   -26094.503   -105.80728    38.993577   -96.692738   -259.72268    41.238982    41.238982    82.477965 
   37300    922.66764   -25138.041   -26092.034   -104.94245   -422.49718    481.89512    -374.2253    41.238032    41.238032    82.476064 
   37400    926.94617    -25138.12   -26096.538   -3.7770549   -96.221746   -136.81702     221.7076    41.236114    41.236114    82.472229 
   37500    924.73578   -25138.185   -26094.317    100.46151   -532.09641    836.54215     -3.06121    41.234282    41.234282    82.468564 
   37600    908.27305   -25138.217   -26077.327    535.59027    531.75138    572.88182    502.13761    41.233266    41.233266    82.466532 
   37700    933.75281   -25138.172   -26103.628   -40.764217   -287.93406   -56.665415    222.30682    41.233665    41.233665    82.467331 
   37800    928.45435   -25138.227   -26098.204   -6.6353132   -39.316259   -329.22812    348.63844    41.234084    41.234084    82.468168 
   37900    921.89932   -25138.285   -26091.485    57.495903    580.55381   -370.94746    -37.11864    41.235047    41.235047    82.470093 
   38000     914.7272   -25138.299   -26084.083    275.30389    542.81399    99.117374    183.98032    41.236355    41.236355    82.472711 
   38100    924.88292   -25138.309   -26094.593    25.516919   -155.84363   -270.31996    502.71434     41.23775     41.23775      82.4755 
   38200    917.23288   -25138.295    -26086.67    58.920364    567.83959   -395.55318    4.4746801    41.239039    41.239039    82.478078 
   38300    927.17287   -25138.219   -26096.871   -233.46253   -152.69189   -599.17565    51.479967    41.240022    41.240022    82.480043 
   38400    917.98984    -25138.15   -26087.308   -71.883995   -479.81123   -188.25689    452.41613    41.239959    41.239959    82.479917 
   38500    932.95458   -25138.042   -26102.673   -348.47687   -305.99743   -329.93429   -409.49889    41.239121    41.239121    82.478242 
   38600    935.64414    -25137.95   -26105.361   -307.50022    263.68423   -201.60648    -984.5784    41.237241    41.237241    82.474481 
   38700    910.10833   -25137.928   -26078.936     516.1196    568.60495    243.63562    736.11824    41.234657    41.234657    82.469315 
   38800    933.57788   -25137.854   -26103.129   -58.304727    -342.1009    473.95181   -306.76509    41.233216    41.233216    82.466432 
   38900     912.9177   -25137.829   -26081.742    548.50784    514.45273   -17.153769    1148.2246    41.232624    41.232624    82.465248 
   39000     935.1318    -25137.75   -26104.631   -162.92031    342.32898   -242.66489   -588.42502    41.234018    41.234018    82.468036 
   39100    918.50982   -25137.732   -26087.427    229.50899    422.81547    177.53655    88.174959    41.235666    41.235666    82.471332 
   39200     925.3123   -25137.716   -26094.444    -30.41497   -253.85371   -192.15277    354.76157    41.237435    41.237435     82.47487 
   39300    916.19424   -25137.731   -26085.032    158.70186    445.35545    49.399222   -18.649095    41.238816    41.238816    82.477632 
   39400     929.1831   -25137.699   -26098.429   -148.16774    115.91107   -700.03844    139.62416    41.240048    41.240048    82.480096 
   39500    920.78501   -25137.685   -26089.732    36.564272    217.98893   -12.408535   -95.887583    41.240145    41.240145     82.48029 
   39600    933.56684   -25137.653   -26102.916   -339.91686   -500.75686   -114.71698   -404.27674    41.239511    41.239511    82.479022 
   39700    935.70482   -25137.645   -26105.119   -401.76887    63.018181   -45.273543   -1223.0513    41.237857    41.237857    82.475713 
   39800    914.49166   -25137.646   -26083.186    336.97743    981.80732      259.823   -230.69802    41.235824    41.235824    82.471648 
   39900    916.16492   -25137.619   -26084.889    399.47687     519.1669    331.45751    347.80619    41.234748    41.234748    82.469496 
   40000    929.13466   -25137.555   -26098.236    62.005016    185.93701   -187.40722    187.48526    41.234985    41.234985     82.46997 
   40100    913.77719   -25137.558   -26082.359    409.94696    506.03311    685.47061    38.337154    41.235714    41.235714    82.471427 
   40200    928.82906   -25137.498   -26097.862   -82.776469   -164.24386    335.10754   -419.19308    41.237453    41.237453    82.474906 
   40300    920.02329   -25137.543   -26088.803    124.17719    151.44203    546.10007   -325.01053     41.23841     41.23841    82.476821 
   40400    932.82271   -25137.633   -26102.127   -253.58857   -364.88636   -269.89276   -125.98659     41.23894     41.23894     82.47788 
   40500    929.99277   -25137.727   -26099.295   -222.84017   -282.19324    118.90325   -505.23053     41.23882     41.23882     82.47764 
   40600    928.30061   -25137.796   -26097.614   -99.914381   -292.06847   -275.75018    268.07551    41.238239    41.238239    82.476478 
   40700    937.84498   -25137.817   -26107.503    -384.2584   -724.18791   -412.02167   -16.565635    41.237516    41.237516    82.475032 
   40800    924.01684   -25137.834   -26093.223    86.437895   -200.47881    60.829631    398.96286    41.236608    41.236608    82.473216 
   40900    927.23693   -25137.839   -26096.558   -54.497169    203.65775   -298.52332   -68.625941    41.236223    41.236223    82.472447 
   41000    926.99279   -25137.854    -26096.32    50.231228    80.315825    213.79897   -143.42112    41.236063    41.236063    82.472126 
   41100    930.87653   -25137.875   -26100.356   -83.580717    416.58082    125.79559   -793.11856    41.236177    41.236177    82.472354 
   41200    929.20574   -25137.926    -26098.68   -19.079163    349.51897   -40.071502   -366.68496    41.236192    41.236192    82.472384 
   41300    920.89062   -25137.984   -26090.141     184.2789    424.51903    208.50502   -80.187346    41.236409    41.236409    82.472817 
   41400    926.35046   -25138.065   -26095.866      -32.331   -176.23695   -171.35588    250.59983    41.236713    41.236713    82.473426 
   41500     930.2491   -25138.157    -26099.99   -239.91366     384.9022   -1138.5727    33.929563    41.237068    41.237068    82.474135 
   41600    918.82646   -25138.231   -26088.254    100.81767   -66.126575   -91.468975    460.04856    41.236904    41.236904    82.473807 
   41700    923.04303   -25138.234   -26092.616    1.2550263   -153.99435    396.16144   -238.40201    41.236908    41.236908    82.473816 
   41800    931.22533   -25138.266   -26101.108   -147.78519   -359.22865   -105.58345    21.456513    41.236561    41.236561    82.473121 
   41900    914.50354   -25138.334   -26083.887    333.24052     314.4718    586.98587    98.263898    41.235961    41.235961    82.471921 
   42000    920.15881   -25138.299   -26089.699    127.88195    35.040424    177.71439    170.89103    41.236321    41.236321    82.472641 
   42100    923.74434   -25138.251   -26093.359   -151.92863    192.53846   -375.12388   -273.20048    41.236703    41.236703    82.473406 
   42200    926.49798   -25138.222   -26096.176     6.004821    280.14117   -282.71499    20.588285    41.236511    41.236511    82.473021 
   42300    929.55298   -25138.234   -26099.347   -95.317505   -351.34332    168.76649   -103.37568    41.236057    41.236057    82.472114 
   42400    924.04156   -25138.231   -26093.646    56.849766   -376.11737    373.41356    173.25311    41.235738    41.235738    82.471476 
   42500     921.7098   -25138.214   -26091.218     110.6499    103.06608    207.35749    21.526128    41.235712    41.235712    82.471423 
   42600    931.44563   -25138.121   -26101.191    -176.3758   -218.66353   -72.063585   -238.40027    41.236558    41.236558    82.473116 
   42700    928.51598   -25138.038   -26098.079   -239.09976   -283.34951   -345.66779   -88.281971    41.237301    41.237301    82.474602 
   42800     923.5457   -25137.978    -26092.88   -33.789289    16.966413    214.79002    -333.1243    41.237356    41.237356    82.474713 
   42900    916.36259   -25137.937   -26085.412    246.55507   -193.37933    604.21072    328.83382    41.236877    41.236877    82.473754 
   43000    927.48084   -25137.852   -26096.823   -198.59382   -36.573105   -198.11992   -361.08842    41.236635    41.236635    82.473269 
   43100    925.80862   -25137.772   -26095.014   -91.466139   -181.92742   -428.21777    335.74678    41.235981    41.235981    82.471963 
   43200    925.35853   -25137.676   -26094.452    70.921293    619.82487    502.15203   -909.21302    41.235352    41.235352    82.470704 
   43300    923.90066   -25137.519   -26092.788    154.12864    354.83052    193.96146   -86.406061    41.235375    41.235375    82.470749 
   43400    925.02577   -25137.396   -26093.828    4.3183381    296.27082    112.00016   -395.31596    41.235575    41.235575     82.47115 
   43500    932.08571   -25137.262   -26100.994   -146.58993     263.2301   -285.42115   -417.57874    41.235879    41.235879    82.471757 
   43600    930.72682   -25137.172   -26099.499   -130.11565    46.196681    -185.4593   -251.08435     41.23577     41.23577    82.471539 
   43700     926.1563   -25137.107   -26094.709   -26.835195   -272.38346    -437.1993    629.07718    41.235755    41.235755    82.471509 
   43800    926.92836   -25137.047   -26095.446   -58.848499   -162.09913    -427.7428    413.29643    41.236067    41.236067    82.472133 
   43900    927.69876    -25137.04   -26096.236    8.0124732    47.562504   -242.82533    219.30025    41.236244    41.236244    82.472489 
   44000    927.58145   -25137.095   -26096.169   -25.756461     92.17842   -180.07051    10.622712    41.236442    41.236442    82.472885 
   44100    924.79779   -25137.201   -26093.397    110.60953    667.24854   -474.68301    139.26305    41.236468    41.236468    82.472936 
   44200    930.49208   -25137.255   -26099.339   -85.213081   -102.40082    288.30342   -441.54184     41.23684     41.23684     82.47368 
   44300    920.17825   -25137.309   -26088.729     135.7683     10.44079    200.54378    196.32033    41.237252    41.237252    82.474505 
   44400     928.2107   -25137.327   -26097.052    19.122807   -233.55525    35.328648    255.59502    41.238038    41.238038    82.476076 
   44500     913.1773   -25137.414   -26081.595    157.05231   -29.940677    22.497002    478.60062    41.238295    41.238295     82.47659 
   44600    922.21685   -25137.418   -26090.946    57.679378    136.96796    38.743504   -2.6733331    41.238463    41.238463    82.476926 
   44700    918.35231    -25137.41   -26086.942     76.39443   -33.963733    28.045343    235.10168    41.238339    41.238339    82.476678 
   44800    928.56992   -25137.321   -26097.418   -136.83469   -332.86314    383.24226   -460.88319    41.238225    41.238225     82.47645 
   44900     928.7441   -25137.274   -26097.551    -167.0204   -10.521288   -274.23142   -216.30848    41.237588    41.237588    82.475175 
   45000    923.83034   -25137.253   -26092.449    129.29065    -98.54284    235.20745    251.20735    41.236625    41.236625     82.47325 
   45100    937.90515   -25137.266   -26107.015   -210.95457   -293.70807    93.990154    -433.1458    41.235944    41.235944    82.471888 
   45200    913.91232   -25137.302   -26082.243    473.67365    869.20828    379.05539    172.75728    41.235537    41.235537    82.471074 
   45300    922.98353   -25137.309    -26091.63    -22.81764    90.537609    116.47643   -275.46696    41.236247    41.236247    82.472494 
   45400    924.47844   -25137.323    -26093.19    62.180443    372.67618     286.1831   -472.31796    41.236773    41.236773    82.473545 
   45500     916.9407   -25137.364   -26085.437    131.50767    264.04263    103.92201    26.558359    41.236971    41.236971    82.473943 
   45600     928.0137   -25137.407   -26096.928   -149.47158   -48.464989   -531.49724    131.54748    41.236948    41.236948    82.473896 
   45700    930.17658   -25137.428   -26099.186   -132.40756    142.38779   -604.53815    64.927695    41.236995    41.236995    82.473989 
   45800    932.20769   -25137.444   -26101.302   -254.29446    320.80898   -952.60011   -131.09224    41.236995    41.236995    82.473989 
   45900    928.70864   -25137.462   -26097.703   -87.162704    216.83831   -677.26654    198.94012    41.236499    41.236499    82.472998 
   46000     915.8119   -25137.549   -26084.455    287.25796    818.77799   -138.05407    181.04995    41.235248    41.235248    82.470497 
   46100    925.37532   -25137.565   -26094.358    116.93572    188.06368    500.12448   -337.38101    41.234465    41.234465     82.46893 
   46200    922.41377   -25137.547   -26091.278    112.69342    800.34247   -165.74508   -296.51714    41.234326    41.234326    82.468652 
   46300    924.09601   -25137.534   -26093.005    59.469424      602.769    -46.94536   -377.41537      41.2347      41.2347      82.4694 
   46400    929.72938   -25137.495    -26098.79   -3.7924318   -73.490622   -55.816102    117.92943    41.235661    41.235661    82.471322 
   46500    927.74788   -25137.491   -26096.737   -92.442606    497.05142   -391.96831   -382.41093    41.236722    41.236722    82.473444 
   46600    923.52542    -25137.49   -26092.371   -13.414857   -763.94502    595.93339    127.76706    41.237388    41.237388    82.474777 
   46700    922.01857   -25137.508   -26090.831    79.771665    379.27513   -252.89126    112.93113    41.237636    41.237636    82.475271 
   46800     916.6676    -25137.52    -26085.31     147.6389   -51.162252    306.94644    187.13251     41.23765     41.23765    82.475301 
   46900    923.08039     -25137.5   -26091.921   -74.379346    238.37324   -33.606556   -427.90472    41.237502    41.237502    82.475003 
   47000    922.27411   -25137.508   -26091.095    64.076141   -280.86356   -409.01864    882.11062    41.236923    41.236923    82.473846 
   47100    926.53685   -25137.545   -26095.539    72.950346    376.30858    134.39051   -291.84806    41.236024    41.236024    82.472047 
   47200    928.10076    -25137.58   -26097.192    24.380248    571.91953   -275.08531   -223.69348    41.235365    41.235365    82.470729 
   47300    932.09399   -25137.606   -26101.346   -89.891255   -430.84718      137.639     23.53441    41.235183    41.235183    82.470367 
   47400    928.12624   -25137.645   -26097.282    44.178117   -223.82655    399.61899   -43.258088    41.235528    41.235528    82.471057 
   47500    912.65999    -25137.63   -26081.277     350.3321    640.96391     120.3754      289.657    41.236767    41.236767    82.473533 
   47600    920.63672    -25137.58   -26089.474    4.3508481    73.904746   -311.61589    250.76369     41.23839     41.23839    82.476781 
   47700    909.06632   -25137.562   -26077.493    205.31942    297.66895    251.58118    66.708147    41.239003    41.239003    82.478007 
   47800    922.10142   -25137.531   -26090.939   -39.209822   -28.858923    131.65092   -220.42146     41.23886     41.23886     82.47772 
   47900    935.22626   -25137.493   -26104.472   -325.88511   -483.19988   -285.87722   -208.57824    41.238178    41.238178    82.476356 
   48000    927.64716   -25137.483   -26096.625   -57.719671    98.821025   -474.51587    202.53583    41.236937    41.236937    82.473875 
   48100    925.27224   -25137.463    -26094.15    26.366609   -110.35968   -5.0345669    194.49407    41.235654    41.235654    82.471309 
   48200    924.04398    -25137.48   -26092.897    128.75307    511.21822    424.20691   -549.16591    41.234461    41.234461    82.468923 
   48300    926.69598   -25137.499   -26095.658    206.94777   -327.58989    558.86225    389.57095     41.23396     41.23396     82.46792 
   48400    920.41985   -25137.511   -26089.181    198.45365    628.44905   -416.01244    382.92432    41.234669    41.234669    82.469339 
   48500    927.65741   -25137.506   -26096.659   -50.368235    231.93236   -545.76382    162.72676    41.236184    41.236184    82.472367 
   48600    916.31213   -25137.499   -26084.921    232.52635    146.93547    222.65607    327.98752    41.237946    41.237946    82.475893 
   48700    923.05759   -25137.507   -26091.904    5.6159718    242.99845   -480.36968    254.21915    41.239656    41.239656    82.479311 
   48800     924.7831   -25137.537   -26093.718   -228.79924   -609.08183   -52.753606   -24.562295    41.240747    41.240747    82.481494 
   48900    926.56154    -25137.54    -26095.56   -197.56826   -449.21579   -12.705033   -130.78397    41.240813    41.240813    82.481625 
   49000    925.21235   -25137.578   -26094.203    -241.8758   -181.21787   -733.61803    189.20851    41.239288    41.239288    82.478576 
   49100    920.34703   -25137.559   -26089.153    86.440616    51.224779   -125.35439    333.45146    41.237175    41.237175    82.474351 
   49200    934.56821   -25137.496   -26103.795   -215.55943    141.49464   -288.17277   -500.00017     41.23535     41.23535      82.4707 
   49300    923.96407   -25137.517   -26092.852    135.11883     143.8032   -56.627452    318.18075    41.233302    41.233302    82.466603 
   49400    924.52517   -25137.519   -26093.434    227.01073    292.08254    197.05095     191.8987    41.232356    41.232356    82.464712 
   49500    919.16322   -25137.553   -26087.924     267.4474     51.17551    209.76679     541.3999    41.232421    41.232421    82.464842 
   49600    925.29731   -25137.618    -26094.33    55.261305   -287.51451    418.69511    34.603317    41.233304    41.233304    82.466607 
   49700    927.19105   -25137.658   -26096.329   -5.8663865    1010.7977   -731.01507   -297.38183    41.235196    41.235196    82.470392 
   49800     920.4114   -25137.653   -26089.314    93.075751    -219.7108    151.84191    347.09615    41.237752    41.237752    82.475504 
   49900    922.47169   -25137.615   -26091.406   -92.868065    181.97132   -363.74191   -96.833606    41.240089    41.240089    82.480177 
   50000    921.16549   -25137.599   -26090.039   -163.68825   -357.44741    111.72762   -245.34496    41.241014    41.241014    82.482028 
Loop time of 1476.16 on 1 procs for 50000 steps with 8000 atoms

Pair  time (%) = 1335.15 (90.4475)
Neigh time (%) = 99.9265 (6.76935)
Comm  time (%) = 8.65154 (0.586084)
Outpt time (%) = 0.645607 (0.0437355)
Other time (%) = 31.7864 (2.15332)

Nlocal:    8000 ave 8000 max 8000 min
Histogram: 1 0 0 0 0 0 0 0 0 0
Nghost:    9113 ave 9113 max 9113 min
Histogram: 1 0 0 0 0 0 0 0 0 0
Neighs:    296294 ave 296294 max 296294 min
Histogram: 1 0 0 0 0 0 0 0 0 0

Total # of neighbors = 296294
Ave neighs/atom = 37.0367
Neighbor list builds = 5000
Dangerous builds = 0
unfix		1

# Melt half the system
region  liquid block INF INF INF INF INF ${nzhalf}
region  liquid block INF INF INF INF INF 10
group	liquid_group region liquid
3995 atoms in group liquid_group

# Heat up one side to Tmelt to make sure it is melted
fix 2 liquid_group npt temp ${Tmelt} ${Tmelt} 1 z 0 0 10 drag 1.0
fix 2 liquid_group npt temp 2000 ${Tmelt} 1 z 0 0 10 drag 1.0
fix 2 liquid_group npt temp 2000 2000 1 z 0 0 10 drag 1.0
run		${eqsteps}
run		50000
Memory usage per processor = 5.95825 Mbytes
Step Temp TotEng PotEng Press Pxx Pyy Pzz Lx Ly Lz 
   50000    921.16549   -25137.599   -26090.039   -163.68825   -357.44741    111.72762   -245.34496    41.241014    41.241014    82.482028 
   50100    913.80288   -25135.205   -26080.033    103.27158    70.456037    349.18211    -109.8234    41.241014    41.241014    82.482039 
   50200    925.24206   -25129.652   -26086.308    112.00936     110.4749    282.08748   -56.534286    41.241014    41.241014    82.482089 
   50300    913.43602   -25124.278   -26068.726    579.35449    483.91755     732.4737    521.67223    41.241014    41.241014    82.482155 
   50400     923.9502   -25118.997   -26074.317     427.3269     111.5098    422.63771    747.83319    41.241014    41.241014    82.482404 
   50500    926.37651   -25113.132    -26070.96    620.76623    715.33957     523.6709    623.28822    41.241014    41.241014    82.482981 
   50600    925.81519   -25106.884   -26064.133    745.83232    850.61468    582.13687    804.74542    41.241014    41.241014    82.483807 
   50700    938.40092   -25100.507   -26070.768    718.05777    911.76774     342.6457    899.75988    41.241014    41.241014    82.484965 
   50800    928.53673   -25093.978   -26054.041    1027.5101    1230.5715    962.37257    889.58614    41.241014    41.241014     82.48658 
   50900    933.52074   -25087.377   -26052.593    1131.2106     1274.262    1181.0068    938.36299    41.241014    41.241014    82.488698 
   51000    937.20543   -25080.674   -26049.699    1259.8736    1357.3409    1317.9849     1104.295    41.241014    41.241014    82.491289 
   51100    943.21552    -25073.92   -26049.159    1315.9996    1777.3909    1397.4488    773.15902    41.241014    41.241014    82.494309 
   51200    947.32301   -25067.109   -26046.596    1351.5451    1671.8637    827.14436    1555.6272    41.241014    41.241014    82.497755 
   51300    934.69978   -25060.252   -26026.686    1941.9454    2324.5566    1962.8877    1538.3918    41.241014    41.241014    82.501896 
   51400    957.76976   -25053.354   -26043.642    1473.7557    1295.0727    1286.1403    1840.0542    41.241014    41.241014    82.506677 
   51500     952.9616    -25046.37   -26031.686    1805.3992    2044.1548    1756.7912    1615.2515    41.241014    41.241014    82.512204 
   51600    960.04492    -25039.42    -26032.06    1693.3989    2010.5668    1142.5772    1927.0527    41.241014    41.241014    82.518482 
   51700    964.01556   -25032.428   -26029.174    1745.8628    1920.0534    1339.9929    1977.5422    41.241014    41.241014    82.525622 
   51800    967.61549   -25025.395   -26025.863     1919.751     1972.398    1679.9603    2106.8946    41.241014    41.241014    82.533681 
   51900     964.5706   -25018.288   -26015.608    2060.0168    2353.1896     1967.105    1859.7558    41.241014    41.241014    82.542621 
   52000    972.24458   -25011.164   -26016.418    2085.0128    2411.2645    1927.4261    1916.3479    41.241014    41.241014    82.552327 
   52100    975.97103   -25004.035   -26013.142    2074.8088     1848.792    2260.7847    2114.8497    41.241014    41.241014    82.562876 
   52200    988.59026   -24996.855    -26019.01    1948.6858    2048.5103    1903.7582    1893.7889    41.241014    41.241014    82.574323 
   52300     978.3987    -24989.66   -26001.277    2347.9996    2399.4149    2087.1922    2557.3917    41.241014    41.241014    82.586681 
   52400    984.58188   -24982.436   -26000.446    2221.5809    2302.9741     2373.027    1988.7414    41.241014    41.241014     82.60006 
   52500    989.26677   -24975.186    -25998.04    2302.3698    2713.5552    2297.7189    1895.8352    41.241014    41.241014    82.614359 
   52600    992.39305   -24967.877   -25993.964    2418.1972    2313.1941    1944.0351    2997.3624    41.241014    41.241014    82.629544 
   52700    998.23614   -24960.567   -25992.695    2269.4991    2212.0333    2419.6745    2176.7895    41.241014    41.241014    82.645776 
   52800    995.18549   -24953.169   -25982.142    2347.5967    2195.6403    2308.4314    2538.7184    41.241014    41.241014    82.662821 
   52900    1008.1735   -24945.815   -25988.218    2178.6821    2112.8038    2450.6058    1972.6367    41.241014    41.241014    82.680763 
   53000    997.37024   -24938.451   -25969.684      2549.13    2867.3616    2628.7259    2151.3024    41.241014    41.241014    82.699564 
   53100    1004.4882   -24930.971   -25969.563    2431.8329    2853.1297    2444.2164    1998.1527    41.241014    41.241014    82.719095 
   53200    1016.0371   -24923.486   -25974.019    2274.5164    2591.2899    2639.4139    1592.8454    41.241014    41.241014    82.739268 
   53300    1010.9683   -24916.018    -25961.31     2467.538    2472.2377    2534.5832     2395.793    41.241014    41.241014    82.760156 
   53400    1014.3404   -24908.429   -25957.208    2393.7909    2357.6807    2586.4194    2237.2727    41.241014    41.241014    82.781786 
   53500    1010.4273   -24900.963   -25945.696    2698.1317    2570.4886    2924.8298    2599.0767    41.241014    41.241014    82.804088 
   53600    1020.4502   -24893.337   -25948.434     2452.496    2789.2577    2268.1595    2300.0708    41.241014    41.241014    82.827073 
   53700     1024.808    -24885.73   -25945.332    2251.3585    2906.8735     2182.971    1664.2311    41.241014    41.241014    82.850613 
   53800    1025.6123   -24878.075   -25938.509    2383.9697    3007.4106     2569.515    1574.9834    41.241014    41.241014    82.874611 
   53900    1030.5367   -24870.384    -25935.91    2225.1157    2305.8332    2315.8758    2053.6381    41.241014    41.241014    82.898973 
   54000    1032.5474    -24862.74   -25930.345    2184.6694    2869.4659    2333.8101    1350.7321    41.241014    41.241014    82.923812 
   54100    1035.0774   -24855.009   -25925.229    2268.2672    2733.7531    2383.9688    1687.0799    41.241014    41.241014    82.948979 
   54200     1043.947   -24847.264   -25926.655    2142.9013    2072.5618    2113.7834    2242.3586    41.241014    41.241014    82.974442 
   54300    1045.5151   -24839.459   -25920.471     2029.969    1808.2696    2209.3286    2072.3088    41.241014    41.241014    83.000189 
   54400    1046.2852   -24831.668   -25913.477    2107.7371    2459.5686    2334.0983    1529.5444    41.241014    41.241014    83.026143 
   54500    1042.9348   -24823.898   -25902.242    2258.7685    2296.4052    2435.6711    2044.2293    41.241014    41.241014    83.052274 
   54600    1049.7363   -24816.064   -25901.441    2139.3406    2115.5543    2045.5079    2256.9597    41.241014    41.241014     83.07872 
   54700      1057.85   -24808.199   -25901.965    1965.3138    2148.5912    2304.8185    1442.5316    41.241014    41.241014    83.105486 
[...]
  336300     958.6522   -25047.576   -26038.776    235.13784   -113.42726    336.37825    482.46253    41.278324    41.278324    82.524098 
  336400    952.31678   -25047.571   -26032.221    532.78177    220.71352    938.15574    439.47605    41.277994    41.277994    82.510506 
  336500    958.58924   -25047.578   -26038.713    33.086087     112.1878   -310.89784     297.9683    41.277858    41.277858    82.532739 
  336600    951.00278   -25047.579    -26030.87   -33.663837   -99.304469    171.20946   -172.89651    41.277729    41.277729    82.576837 
  336700    960.23999   -25047.586   -26040.428     -140.522    228.36464    -51.86961   -598.06103    41.277577    41.277577    82.573363 
  336800    956.38036   -25047.579    -26036.43    277.54985   -181.23752    468.17835     545.7087    41.277387    41.277387    82.529669 
  336900    954.14362   -25047.579   -26034.117    283.42106    -98.77896    1028.7021   -79.659979     41.27728     41.27728    82.530021 
  337000    966.23191   -25047.585   -26046.623     266.5048   -169.39745    692.75532    276.15652     41.27734     41.27734    82.528609 
  337100    958.40185   -25047.585   -26038.526    232.10594   -228.75528    1019.2069     -94.1338    41.277516    41.277516    82.540997 
  337200    959.23671   -25047.588   -26039.393   -101.58371   -349.42277   -97.196738    141.86839    41.277745    41.277745    82.565319 
  337300     960.0314   -25047.581   -26040.207   -233.67518   -729.80025   -95.380249    124.15496    41.277801    41.277801    82.590696 
  337400    961.52889   -25047.584   -26041.758   -395.51243    -277.4106   -341.83808    -567.2886    41.277647    41.277647    82.592887 
  337500    962.59358   -25047.595    -26042.87   -121.27859   -218.27281   -190.85356    45.290588    41.277369    41.277369    82.554021 
  337600    948.96686   -25047.585   -26028.771    547.95226    542.16248    577.31916    524.37513    41.277098    41.277098    82.527329 
  337700    952.68422   -25047.586   -26032.616    349.01048    55.165901    624.29046    367.57508    41.277002    41.277002    82.537678 
  337800    974.05573   -25047.601   -26054.728   -484.28455   -511.05855   -532.19986   -409.59524    41.277007    41.277007    82.581188 
  337900    964.89848   -25047.592   -26045.251   -285.75769   -641.37897    80.540641   -296.43473    41.276923    41.276923    82.590195 
  338000    950.11961   -25047.606   -26029.984    332.16707     135.1122    911.85389   -50.464874    41.276792    41.276792    82.549471 
  338100    959.12258   -25047.608   -26039.294    696.79788    682.46871    803.92283     604.0021    41.276869    41.276869    82.488397 
  338200    965.49075   -25047.609    -26045.88    502.49488    595.32918   -6.4817477    918.63722    41.277179    41.277179     82.47517 
  338300    963.47627   -25047.644   -26043.832     2.185011    16.807444   -331.76156    321.50914     41.27766     41.27766    82.543934 
  338400    971.44823    -25047.63   -26052.061   -832.05987   -780.80408   -989.98687   -725.38865    41.278094    41.278094    82.620716 
  338500    961.45011   -25047.619   -26041.712    -623.7304    -839.3709   -693.10075   -338.71956    41.278191    41.278191    82.635172 
  338600    960.26748   -25047.626   -26040.496   -557.17874    100.41195    -1104.995   -666.95319    41.277897    41.277897     82.60752 
  338700    970.39852   -25047.648   -26050.993   -73.877699   -180.11835    328.65107   -370.16582    41.277406    41.277406    82.549131 
  338800    958.07608   -25047.626   -26038.231     432.4707     386.3972    508.75592    402.25897    41.276935    41.276935    82.509688 
  338900    956.09208   -25047.626    -26036.18    436.55966     560.8013    255.60219     493.2755    41.276704    41.276704    82.515673 
  339000    973.09531   -25047.638   -26053.772   -308.22306   -124.94306   -186.41746   -613.30867    41.276712    41.276712    82.555435 
  339100    952.21201   -25047.639    -26032.18   -234.35893    391.75441   -257.95353   -836.87767    41.276657    41.276657    82.594212 
  339200    953.04358   -25047.643   -26033.044    163.48417    292.42023    299.45546   -101.42319     41.27658     41.27658    82.575337 
  339300    961.58051   -25047.674   -26041.902    368.09133    287.23212    568.33262    248.70924    41.276563    41.276563    82.502135 
  339400    955.55034   -25047.644   -26035.637     824.9867    1043.2617    520.26429    911.43411    41.276755    41.276755    82.464267 
  339500    966.23014   -25047.676   -26046.711    362.31272    217.73647    258.76215    610.43955    41.277207    41.277207    82.502748 
  339600    964.08403   -25047.679   -26044.495   -366.67544   -265.35687   -134.17038   -700.49907    41.277785    41.277785    82.590674 
  339700    951.85482   -25047.665   -26031.837    -518.1117   -525.42759   -566.62651     -462.281    41.278152    41.278152    82.638536 
  339800     963.4484   -25047.673   -26043.832   -842.94459    -767.2098   -1028.6315   -732.99252    41.278104    41.278104     82.64015 
  339900    953.87255   -25047.681   -26033.939   -41.644117    229.35534   -414.84543    60.557742    41.277668    41.277668    82.596098 
  340000    970.87587   -25047.676   -26051.515   -267.67058    -460.3479   -199.59819   -143.06567    41.277129    41.277129    82.554322 
  340100    957.18864   -25047.682   -26037.369    356.71432    1009.4405    84.050053   -23.347627    41.276572    41.276572    82.518792 
  340200    955.86888   -25047.672   -26035.994     542.3295    297.49556    907.98456    421.50838    41.276251    41.276251    82.496311 
  340300    961.59123    -25047.69   -26041.929     316.8842    735.80112   -215.92868    430.78014    41.276184    41.276184     82.52298 
  340400    965.77704   -25047.693    -26046.26   -282.97909   -640.84145   -180.25455   -27.841271    41.276279    41.276279    82.576447 
  340500    950.88901   -25047.678   -26030.851   -108.63904    -226.6211   -167.81909    68.523077     41.27627     41.27627    82.609845 
  340600    953.13529    -25047.68   -26033.176   -305.02687   -198.22852    -450.6437   -266.20839    41.276063    41.276063    82.608079 
  340700    957.32222   -25047.691   -26037.516   -88.458952    240.76273    234.29787   -740.43745    41.275673    41.275673    82.575532 
  340800    963.50252   -25047.692   -26043.907     278.3053    -29.47314    187.16379    677.22524     41.27534     41.27534    82.519609 
  340900    967.92101    -25047.69   -26048.474    323.77632    600.18636    324.34743    46.795156    41.275152    41.275152    82.512391 
  341000    951.40945   -25047.698   -26031.409     460.6132    351.33822    78.158541    952.34283    41.275184    41.275184    82.532928 
  341100    957.80866   -25047.691   -26038.019   -137.10454   -370.17832   -185.68756    144.55227    41.275309    41.275309    82.582144 
  341200    950.24495   -25047.693   -26030.201   -166.48569   -441.88208   -35.421305   -22.153681    41.275288    41.275288    82.615216 
  341300    957.68805   -25047.699   -26037.902   -395.95929   -232.62057   -555.05214   -400.20515    41.275094    41.275094     82.61506 
  341400    967.61205   -25047.703   -26048.168   -417.16216   -460.48991    -648.0929   -142.90366    41.274742    41.274742    82.588555 
  341500    947.61897   -25047.693   -26027.486    293.37896    375.07296    381.55527    123.50866    41.274222    41.274222    82.569626 
  341600    959.89947   -25047.702   -26040.192   -24.344469   -97.135752    -134.1847    158.28705    41.273745    41.273745     82.57975 
  341700     957.3494   -25047.699   -26037.552   -117.09286   -53.344879    194.98623   -492.91993    41.273262    41.273262    82.599496 
  341800    966.51891   -25047.703   -26047.037   -197.52681   -584.94016     236.4081   -244.04837    41.272776    41.272776    82.585161 
  341900    960.48336     -25047.7   -26040.793    160.46201    183.31131    192.25704    105.81768    41.272308    41.272308    82.563406 
  342000    972.34283   -25047.703   -26053.059   -98.692907   -460.77467    207.22374   -42.527788    41.271997    41.271997    82.556197 
  342100    961.25034   -25047.702   -26041.589    50.845904    499.37063   -210.13634   -136.69658    41.271819    41.271819    82.568767 
  342200    968.83879   -25047.703   -26049.436   -336.09856   -520.57427   -68.234113    -419.4873    41.271712    41.271712    82.592169 
  342300    953.50601   -25047.698   -26033.578   -167.83535   -357.10383   -308.92458    162.52236    41.271533    41.271533    82.604339 
  342400    963.16755   -25047.703   -26043.572   -317.46582    27.338316   -194.91722   -784.81855     41.27124     41.27124     82.60789 
  342500    969.41655   -25047.715   -26050.045   -245.84847    395.01647   -685.32768    -447.2342    41.270911    41.270911    82.570979 
  342600    960.09169   -25047.705   -26040.394    375.85231    206.00395    88.242381    833.31059    41.270689    41.270689    82.535497 
  342700    963.91665   -25047.709   -26044.353    111.79153    406.80119     91.89964   -163.32623    41.270632    41.270632    82.549222 
  342800     967.1505   -25047.708   -26047.695   -100.23372   -47.470002   -335.72857    82.497426    41.270735    41.270735    82.561193 
  342900    958.49728   -25047.708   -26038.748   -24.177179    622.90349   -316.34565   -379.08938    41.270867    41.270867    82.581848 
  343000    960.65906   -25047.707   -26040.982   -154.57942    136.93101   -466.74647   -133.92278    41.270981    41.270981    82.587547 
  343100    958.32236   -25047.707   -26038.566    20.672419    266.73739   -336.85301    132.13287    41.271033    41.271033    82.585813 
  343200    968.78848   -25047.709    -26049.39   -251.67892   -1101.7018    706.16265   -359.49759    41.270999    41.270999    82.594103 
  343300    957.53275   -25047.708   -26037.751    75.266155    41.522785   -93.281285    277.55696    41.270929    41.270929    82.582625 
  343400    948.63176   -25047.707   -26028.546    234.46473    396.61389   -190.00193    496.78223    41.270846    41.270846    82.583749 
  343500    971.57746   -25047.713   -26052.277     -398.839   -432.82058   -501.90188   -261.79456    41.270716    41.270716    82.597576 
  343600    954.61871   -25047.708   -26034.738     118.3756    132.73192   -82.662155    305.05704    41.270473    41.270473    82.594177 
  343700    957.09738   -25047.709   -26037.302    75.538701   -85.701285    -202.2797    514.59708     41.27025     41.27025    82.583903 
  343800    958.57275   -25047.708   -26038.826     30.03473     34.86789    148.86412   -93.627815    41.270011    41.270011    82.599248 
  343900    965.15294    -25047.71   -26045.632   -277.84575    -334.6559    -393.3687   -105.51264    41.269771    41.269771    82.598548 
  344000    962.73366   -25047.713   -26043.133    75.346405    79.296976   -507.97688    654.71912    41.269503    41.269503    82.574974 
  344100    970.64028   -25047.715    -26051.31   -182.91926   -52.075392   -451.20062   -45.481757    41.269244    41.269244    82.571223 
  344200    961.07969   -25047.705   -26041.415    68.879924    438.16966   -235.91987    4.3899792    41.269042    41.269042    82.566272 
  344300    951.31964   -25047.705   -26031.324    381.88061    832.31105    119.58603    193.74476    41.268891    41.268891    82.558332 
  344400    950.45755   -25047.709   -26030.436     463.2255     738.1994    452.15643    199.32066    41.268866    41.268866    82.559473 
  344500    963.41714   -25047.713    -26043.84    209.09062    339.36122    459.81626   -171.90562    41.269049    41.269049    82.555599 
  344600    948.18361   -25047.709   -26028.085    485.39811    238.88926    1069.8671    147.43803    41.269399    41.269399    82.552656 
  344700    967.10798   -25047.713   -26047.657   -58.099207   -182.70621    574.71658   -566.30799    41.269951    41.269951    82.553842 
  344800    955.16996   -25047.709   -26035.309    475.57769    481.05852    319.26028    626.41428    41.270577    41.270577    82.540054 
  344900    961.72492   -25047.719   -26042.097      129.572    68.868748    343.92954   -24.082292     41.27129     41.27129    82.563072 
  345000    961.00871   -25047.713    -26041.35   -80.020254   -114.24401   -124.81832   -0.9984336    41.272061    41.272061    82.571359 
  345100    965.63695   -25047.717   -26046.139   -187.54467     59.88015   -170.06613   -452.44803    41.272764    41.272764    82.579608 
  345200    964.40839   -25047.721   -26044.873   -83.644878   -51.979577    117.25047   -316.20553    41.273374    41.273374    82.568635 
  345300    962.91039   -25047.723   -26043.326    274.14771    131.76459    125.43653    565.24202    41.273949    41.273949    82.536235 
  345400    957.83763   -25047.725   -26038.083    260.59598   -193.69861    251.94802    723.53854    41.274503    41.274503     82.54177 
  345500    953.16158   -25047.718   -26033.242    180.92102    543.21051   -393.74269    393.29522    41.274986    41.274986    82.571151 
  345600      968.245   -25047.724   -26048.842   -435.23793   -515.12379     48.01668   -838.60667    41.275435    41.275435    82.588072 
  345700    954.53048   -25047.721   -26034.659    136.81069   -207.76618    32.871153    585.32709    41.275794    41.275794    82.557933 
  345800    958.99407   -25047.722   -26039.276    40.115423   -340.11392    426.13974    34.320443    41.276066    41.276066    82.555152 
  345900    948.82882   -25047.721   -26028.764    278.28908    752.43803    196.47007   -114.04087    41.276281    41.276281    82.561277 
  346000    967.20155   -25047.724   -26047.763   -232.84831    296.22527   -877.23779    -117.5324    41.276477    41.276477    82.571032 
  346100    959.37537   -25047.725   -26039.673   -212.66192    43.521521   -293.19696   -388.31031    41.276526    41.276526    82.588567 
  346200    966.62745   -25047.723   -26047.169   -387.34394   -678.34848   -198.15636   -285.52698    41.276471    41.276471    82.604238 
  346300    962.15753   -25047.732   -26042.557   -162.69734     217.3275   -299.90885   -405.51068    41.276257    41.276257     82.58593 
  346400    959.05433   -25047.742   -26039.358    211.56932   -14.925446    909.82429   -260.19089    41.276048    41.276048    82.539569 
  346500    951.51472   -25047.736   -26031.557    907.58861    1180.6932    989.80504    552.26762    41.276048    41.276048    82.486176 
  346600    958.80668    -25047.74     -26039.1    592.02231    645.33825    148.72843    982.00024    41.276448    41.276448    82.483834 
  346700    950.04708   -25047.747    -26030.05    387.68459     794.5753    443.98566   -75.507189    41.277025    41.277025    82.542404 
  346800    964.40305   -25047.746   -26044.892   -324.37325   -434.37101   -35.571903   -503.17685    41.277664    41.277664    82.581992 
  346900    953.22958   -25047.735   -26033.328   -176.02119    56.560422   -697.20842    112.58443    41.278101    41.278101    82.594906 
  347000    965.08522   -25047.744   -26045.595   -489.87579   -72.940739   -603.46329   -793.22335    41.278232    41.278232    82.596183 
  347100    951.85513   -25047.747    -26031.92    168.34378    -127.0591     -127.407    759.49743    41.278173    41.278173    82.550563 
  347200    962.34094   -25047.741   -26042.756    73.700173    197.16212   -128.88985    152.82825    41.278063    41.278063    82.528183 
  347300    960.89369   -25047.746   -26041.264    179.52629    554.18814    -77.56143     61.95217    41.277956    41.277956    82.523823 
  347400    956.91713   -25047.749   -26037.155    61.341623   -132.63488    610.74339   -294.08365    41.277951    41.277951    82.549479 
  347500    951.13069   -25047.745   -26031.169    199.44337   -437.74259    273.83401    762.23869    41.277971    41.277971    82.566367 
  347600    952.48812   -25047.745   -26032.572   -227.19195   -130.65557   -578.78265    27.862365    41.277822    41.277822    82.601468 
  347700    968.34316   -25047.752   -26048.973   -695.48282   -627.75209   -1052.1908   -406.50554    41.277455    41.277455    82.607562 
  347800    963.39338   -25047.756   -26043.859   -218.38649   -590.21659   -66.026863    1.0839844    41.276861    41.276861    82.581812 
  347900    958.06038   -25047.756   -26038.344    34.990259   -124.76993   -206.74227    436.48297    41.276189    41.276189    82.553195 
  348000    971.45309   -25047.755   -26052.191   -159.22015   -165.07743   -312.58373 0.00070657862    41.275575    41.275575    82.559057 
  348100    960.68006   -25047.753    -26041.05   -81.312966   -99.385993   -165.94354    21.390641    41.274963    41.274963    82.576762 
  348200    968.44228   -25047.762   -26049.085   -627.71808   -482.66641   -624.77833   -775.70949    41.274298    41.274298    82.612133 
  348300     951.1212   -25047.756   -26031.169   -191.40973   -502.81377   -174.53169    103.11627    41.273434    41.273434    82.627735 
  348400    958.45072   -25047.764   -26038.756   -459.27059   -720.40577   -551.99546   -105.41054    41.272349    41.272349    82.626514 
  348500    955.22595   -25047.769   -26035.426   -134.00375    242.87223    -349.1736    -295.7099     41.27112     41.27112    82.607622 
  348600    964.02433   -25047.782   -26044.536    73.242177    140.88919    41.495992    37.341345    41.270008    41.270008    82.565267 
  348700    959.25394   -25047.768   -26039.591    358.72277    534.14376   -1.8878378    543.91238    41.269033    41.269033    82.538814 
  348800    961.70735    -25047.79   -26042.149    45.629568   -197.98495    254.04236    80.831296    41.268275    41.268275    82.570948 
  348900    963.43856   -25047.789   -26043.938    -272.0665   -15.626536   -448.97274   -351.60023    41.267632    41.267632    82.629382 
  349000    960.94788    -25047.78   -26041.354   -388.17687   -399.26972   -330.40337   -434.85751     41.26697     41.26697    82.643294 
  349100    944.14264    -25047.78   -26023.978    331.38864     242.8593    783.51027    -32.20364    41.266226    41.266226    82.612386 
  349200    955.67228   -25047.779   -26035.898    306.27948    26.064455    78.424408    814.34958    41.265583    41.265583    82.582663 
  349300    960.86423    -25047.78   -26041.267    211.49858    625.45196   -6.3741299    15.417908    41.265057    41.265057    82.590332 
  349400    968.21977   -25047.785   -26048.877   -213.90407    205.88366   -541.69072   -305.90517    41.264678    41.264678    82.606808 
  349500    973.83364   -25047.788   -26054.685   -485.15045   -400.13499   -89.777784   -965.53859     41.26435     41.26435    82.617904 
  349600    973.65385   -25047.794   -26054.505   -255.44183   -614.47244   -96.426019   -55.427029    41.264081    41.264081    82.588583 
  349700    959.49477   -25047.784   -26039.855    307.60485    252.19606    696.14173    -25.52323    41.263867    41.263867    82.578086 
  349800    968.04872   -25047.783   -26048.699   -61.399152   -155.48941   -320.61122    291.90318    41.263887    41.263887    82.584804 
  349900     958.6299   -25047.801   -26038.978   -112.65587   -316.10664   -105.98966    84.128675    41.263891    41.263891    82.623699 
  350000    964.63012   -25047.792   -26045.173   -618.46544   -580.18156   -264.80194   -1010.4128    41.263738    41.263738    82.669754 
Loop time of 5813.16 on 1 procs for 200000 steps with 8000 atoms

Pair  time (%) = 5263.56 (90.5456)
Neigh time (%) = 395.055 (6.79587)
Comm  time (%) = 32.1224 (0.552581)
Outpt time (%) = 2.53991 (0.0436925)
Other time (%) = 119.882 (2.06225)

Nlocal:    8000 ave 8000 max 8000 min
Histogram: 1 0 0 0 0 0 0 0 0 0
Nghost:    8353 ave 8353 max 8353 min
Histogram: 1 0 0 0 0 0 0 0 0 0
Neighs:    294923 ave 294923 max 294923 min
Histogram: 1 0 0 0 0 0 0 0 0 0

Total # of neighbors = 294923
Ave neighs/atom = 36.8654
Neighbor list builds = 20000
Dangerous builds = 0
unfix		4
