LAMMPS (13 Jan 2014)
dimension       3
boundary        p p p
units           metal

atom_style	atomic
neighbor	0.3 bin
neigh_modify	every 10 delay 0 check no

# Number of steps for the equilibration steps
variable        eqsteps equal 50000

# Number of steps to run our NPH simulation
variable        simsteps equal 200000

# Our trial melting temperature
variable	T equal 975.0
variable	T2 equal 2*${T}
variable	T2 equal 2*975

# Some high temperature to melt the crystal
variable	Tmelt equal 2000.0

#System size
variable	nx equal 10
variable	ny equal 10
variable	nz equal 20
variable	nzhalf equal ${nz}*0.5
variable	nzhalf equal 20*0.5
variable	a equal 4.050
variable	length equal ${nz}*${a}
variable	length equal 20*${a}
variable	length equal 20*4.05

lattice		fcc ${a}
lattice		fcc 4.05
Lattice spacing in x,y,z = 4.05 4.05 4.05

region         box block 0 ${nx} 0 ${ny} 0 ${nz}
region         box block 0 10 0 ${ny} 0 ${nz}
region         box block 0 10 0 10 0 ${nz}
region         box block 0 10 0 10 0 20
create_box     1 box
Created orthogonal box = (0 0 0) to (40.5 40.5 81)
  1 by 1 by 1 MPI processor grid
create_atoms   1 box
Created 8000 atoms

mass		1 26.9815

pair_style	eam/alloy
pair_coeff	* * Al_potential.alloy Al

velocity	all create ${T2} 1337
velocity	all create 1950 1337

# Create a dump file. This can be visualized with
# e.g. OVITO (http://www.ovito.org/)
dump		id all atom 1000 atomsdump

# 1 fs timestep
timestep	0.001
thermo_style	custom step temp etotal pe press pxx pyy pzz lx ly lz

# output every 100th timestep
thermo		100

# Equilibration the whole system to the trial melting temperature
fix		1 all npt temp ${T} ${T} 1 iso 0 0 3 drag 1.0
fix		1 all npt temp 975 ${T} 1 iso 0 0 3 drag 1.0
fix		1 all npt temp 975 975 1 iso 0 0 3 drag 1.0
run		${eqsteps}
run		50000
Memory usage per processor = 5.95314 Mbytes
Step Temp TotEng PotEng Press Pxx Pyy Pzz Lx Ly Lz 
       0         1950   -25161.046   -27177.252    12145.365    11998.062    11982.825    12455.207         40.5         40.5           81 
     100    933.95648   -25181.634     -26147.3    31239.742    31553.821    31295.146    30870.258    40.589627    40.589627    81.179255 
     200    918.82671   -25213.247    -26163.27     19472.37      20136.3    19409.137    18871.672    40.802727    40.802727    81.605455 
     300    911.15331   -25228.025   -26170.113    10187.328    10192.756    9940.8971    10428.329    40.978272    40.978272    81.956544 
     400    903.11077   -25231.258   -26165.031    4214.2226    4042.9853    4532.1031    4067.5794    41.100901    41.100901    82.201803 
     500    885.96118   -25229.362   -26145.403    242.23859    355.73342    344.20384    26.778493    41.191402    41.191402    82.382804 
     600    883.11418   -25225.144   -26138.241   -2402.4027    -2077.012   -2499.0637   -2631.1324    41.251362    41.251362    82.502724 
     700    876.29395   -25220.468   -26126.514    -3598.377   -3646.0718   -3462.5858   -3686.4735    41.280792    41.280792    82.561584 
     800    890.15803   -25216.269    -26136.65   -3868.8938   -3633.6759   -4191.6169   -3781.3886    41.284128    41.284128    82.568256 
     900    888.59781    -25212.75   -26131.518   -2933.1802    -2632.564   -2742.4963   -3424.4804    41.267239    41.267239    82.534478 
    1000     896.1152   -25209.452   -26135.992   -1640.6454   -1809.4013    -1389.419    -1723.116    41.239322    41.239322    82.478644 
    1100    900.83525   -25206.056   -26137.476   -216.88293    558.29152   -634.45229   -574.48802    41.209769    41.209769    82.419539 
    1200    894.33943     -25202.5   -26127.204    1223.7487    1344.3078    953.27175    1373.6665    41.186067    41.186067    82.372134 
    1300    909.07286   -25198.976   -26138.914    1557.6329     1961.844    1409.9681    1301.0866     41.17268     41.17268    82.345359 
    1400    895.66792   -25195.631   -26121.709    2137.1805    2319.3094     1936.119     2156.113    41.170365    41.170365     82.34073 
    1500    893.28916    -25192.41   -26116.028     1909.667    2449.6868    2077.7774    1201.5367     41.17865     41.17865    82.357299 
    1600    914.59597   -25189.086   -26134.734    731.15419    978.75766      855.366    359.33892    41.194488    41.194488    82.388975 
    1700    915.45676    -25185.75   -26132.288   -134.30342    423.33887   -423.57042   -402.67871    41.212166    41.212166    82.424333 
    1800    905.84206    -25182.34   -26118.937   -465.88472   -84.580964    -289.9784   -1023.0948    41.227478    41.227478    82.454956 
    1900    908.98558   -25178.892   -26118.739   -983.33447   -671.10492   -892.71544   -1386.1831    41.237917    41.237917    82.475833 
    2000    903.37147   -25175.453   -26109.495   -904.13723   -745.41775   -1115.6957   -851.29829    41.241924    41.241924    82.483847 
    2100     916.0802    -25172.09   -26119.272   -1064.4672   -846.76717   -1486.7728   -859.86164     41.24015     41.24015      82.4803 
    2200    897.76432   -25168.786   -26097.031   -104.24826    285.98198   -471.31221   -127.41455     41.23421     41.23421     82.46842 
    2300    913.18268   -25165.479   -26109.666   -23.798258    217.53228    19.617129   -308.54418    41.226692    41.226692    82.453383 
    2400    909.02161   -25162.277   -26102.162    546.08787    717.91281    181.84916    738.50165    41.219492    41.219492    82.438983 
    2500    906.97012   -25159.124   -26096.887    843.19528    1263.0002    647.00619    619.57942    41.215194    41.215194    82.430387 
    2600    922.20388   -25156.008   -26109.522    525.69811    775.93135    300.58801    500.57496    41.214466    41.214466    82.428932 
    2700    916.72478   -25153.023   -26100.872    674.25614     984.2435    290.98944    747.53549    41.216789    41.216789    82.433578 
    2800    923.00786   -25150.072   -26104.417    378.78035    249.99669    209.96218    676.38218    41.222042    41.222042    82.444085 
    2900    922.78752   -25147.135   -26101.253    128.51509    91.686117    363.28433   -69.425195    41.229317    41.229317    82.458634 
    3000    912.70796   -25144.233   -26087.929    157.63303    178.51994    258.94772    35.431419    41.236377    41.236377    82.472754 
    3100    927.81275   -25141.318   -26100.632   -546.25694   -113.76766   -426.13402   -1098.8691    41.242315    41.242315    82.484629 
    3200    911.71819    -25138.39   -26081.062   -126.14513    41.293769   -29.038647   -390.69051    41.246012    41.246012    82.492024 
    3300    929.49922   -25135.457   -26096.515   -635.03722   -339.55862   -594.46113   -971.09191    41.247366    41.247366    82.494733 
    3400    923.00137   -25132.598   -26086.937   -265.17659    48.673059   -735.27217   -108.93067    41.245647    41.245647    82.491293 
    3500    925.12842   -25129.804   -26086.343   -60.214786     351.0324    -354.9032   -176.77356    41.242029    41.242029    82.484057 
    3600    932.16599   -25127.049   -26090.864   -34.483324     301.4545   -283.79315   -121.11133    41.237925    41.237925     82.47585 
    3700    923.01235   -25124.337   -26078.688    542.73386    756.31608    521.52759    350.35792    41.234725    41.234725    82.469451 
    3800     929.6187   -25121.661   -26082.842    517.99914    761.43055    555.11228    237.45459    41.233746    41.233746    82.467492 
    3900    926.10061     -25119.1   -26076.644    592.25678    795.57156    183.32196    797.87682      41.2351      41.2351    82.470199 
    4000    937.71807   -25116.528   -26086.084    138.14893    908.33657    -379.1021   -114.78769    41.238815    41.238815     82.47763 
    4100    932.18072   -25113.971   -26077.801    237.38326    280.49736    649.14424   -217.49182    41.243769    41.243769    82.487539 
    4200    923.24055   -25111.423   -26066.009    268.07207    501.03268    362.34914   -59.165605    41.249258    41.249258    82.498517 
    4300    941.62981   -25108.884   -26082.484   -405.62924    -493.5539   -785.61624    62.282407    41.254301    41.254301    82.508602 
    4400    940.70955   -25106.384   -26079.032   -405.68525    64.401285   -218.24395   -1063.2131    41.257463    41.257463    82.514925 
    4500     940.4386   -25103.929   -26076.298   -266.76186   -531.11588    41.534665   -310.70438    41.258577    41.258577    82.517154 
    4600     932.9145   -25101.546   -26066.134   -91.046244   -484.57605    332.50032     -121.063    41.257729    41.257729    82.515458 
    4700    940.33463   -25099.192   -26071.453   -13.446128   -440.57951    509.38669   -109.14556     41.25574     41.25574     82.51148 
    4800    945.27078   -25096.892   -26074.256   -1.4916841    124.69726    23.041824   -152.21414    41.253352    41.253352    82.506705 
    4900    945.78579   -25094.618   -26072.515    38.243001    47.934436   -238.17762    304.97219    41.251635    41.251635    82.503271 
    5000    940.15058   -25092.421   -26064.491    335.03786    393.30662    69.837699    541.96926    41.250929    41.250929    82.501858 
    5100    938.75964   -25090.295   -26060.927    338.06233    1002.9152    13.996717   -2.7249344    41.251916    41.251916    82.503831 
    5200    944.79894   -25088.168   -26065.045    241.49671    293.17985    235.36075    195.94954    41.254334    41.254334    82.508669 
    5300    950.25133   -25086.077   -26068.591   -157.29269   -173.40038    -146.4129    -152.0648     41.25773     41.25773     82.51546 
    5400    951.51931   -25083.977   -26067.803   -159.26465    269.80174   -796.73538    49.139695    41.261206    41.261206    82.522411 
    5500    950.51207   -25081.882   -26064.665   -207.06992   -607.57201    -362.2928    348.65506    41.264369    41.264369    82.528737 
    5600    940.97919   -25079.884   -26052.812     20.62247   -375.41328   -252.15247    689.43315    41.266187    41.266187    82.532375 
    5700    944.47661    -25077.93   -26054.474   -62.973393   -225.17715   -105.09816    141.35513     41.26689     41.26689    82.533781 
    5800    950.14249    -25075.99   -26058.392   -153.13025   -45.114776   -484.61389    70.337911    41.266794    41.266794    82.533589 
    5900    956.11316   -25074.031   -26062.606   -245.90242   -622.57718    -67.85314   -47.276935    41.266305    41.266305     82.53261 
    6000    962.16261   -25072.172   -26067.002   -211.36063   -389.67786    265.35669   -509.76072    41.264835    41.264835    82.529669 
    6100    960.48725   -25070.402   -26063.499   -42.901033     -333.208   -2.2852885    206.79019    41.263183    41.263183    82.526366 
    6200    947.14719    -25068.68   -26047.985    326.16912    338.74934    380.17251    259.58551    41.262068    41.262068    82.524135 
    6300    949.89654   -25066.965   -26049.112    305.38852    202.07225    463.43794    250.65538    41.262545    41.262545     82.52509 
    6400    959.10238   -25065.244    -26056.91   -26.694044    12.536134   -174.77922    82.160949    41.264672    41.264672    82.529345 
    6500    965.06329   -25063.591    -26061.42   -186.25901   -135.00689   -234.84783   -188.92232    41.267295    41.267295    82.534589 
    6600    950.47469   -25062.021   -26044.766    236.83819    206.33765    261.47006    242.70688    41.269766    41.269766    82.539532 
    6700    954.69205   -25060.452   -26047.558    11.826943    179.39799   -67.891381   -76.025779    41.272383    41.272383    82.544765 
    6800    953.27266   -25058.926   -26044.564      18.6108    30.560209   -502.36279    527.63498    41.274309    41.274309    82.548618 
    6900    957.70908   -25057.359   -26047.584    -199.6028   -408.56194   -509.78469    319.53822    41.276011    41.276011    82.552021 
    7000     954.9722   -25055.855    -26043.25    45.174256    155.58078   -155.48433    135.42632    41.276379    41.276379    82.552758 
    7100    956.96104   -25054.373   -26043.824   -71.516354    123.38021    37.479273   -375.40854     41.27614     41.27614    82.552281 
    7200    960.83353   -25052.866   -26046.321   -71.536671   -132.07694    127.35736   -209.89043    41.275817    41.275817    82.551634 
    7300    974.39078     -25051.4   -26058.873   -444.74841   -619.61834    -298.8834    -415.7435    41.275394    41.275394    82.550789 
    7400    956.85194   -25049.988   -26039.327    39.210241   -4.5968308    62.726835     59.50072    41.274548    41.274548    82.549096 
    7500     963.8415   -25048.586   -26045.151   -2.9379452     225.6788   -9.7127678   -224.77987     41.27408     41.27408     82.54816 
    7600    968.66902   -25047.249   -26048.807   -98.157136   -352.06719    74.812084     -17.2163    41.273871    41.273871    82.547743 
    7700    954.89524   -25045.934    -26033.25    396.16542    451.05453    483.60705     253.8347    41.274196    41.274196    82.548392 
    7800    957.22319   -25044.639   -26034.362    215.00462    27.426611    116.38904     501.1982    41.275375    41.275375     82.55075 
    7900    965.37252   -25043.328   -26041.476    41.161595      336.497    89.565308   -302.57753    41.277247    41.277247    82.554493 
    8000     952.6154   -25042.137   -26027.096    280.96531    619.90629   -81.081432    304.07108    41.278563    41.278563    82.557126 
    8100    957.71891   -25040.997   -26031.233    146.10393    379.32436   -88.707498    147.69493    41.279617    41.279617    82.559234 
    8200    966.43883   -25039.837   -26039.088   -89.736796   -80.262376   -406.77252    217.82451    41.280665    41.280665     82.56133 
    8300    961.64413    -25038.72   -26033.014    122.46817    -129.6035    138.43483    358.57317    41.281135    41.281135    82.562271 
    8400    963.02776     -25037.6   -26033.324    74.824738    682.07341   -163.88233   -293.71687    41.281687    41.281687    82.563373 
    8500    970.42328   -25036.555   -26039.926   -85.813196    -256.5112     103.7592   -104.68759    41.282065    41.282065    82.564129 
    8600    956.08438   -25035.586   -26024.131    265.70708    315.77128    585.45936   -104.10939    41.282208    41.282208    82.564416 
    8700    961.42002   -25034.592   -26028.654    157.46012    778.46881   -290.76404   -15.324421    41.282814    41.282814    82.565629 
    8800    970.44817   -25033.595   -26036.991   -140.97535   -527.13189   -46.386762     150.5926    41.283711    41.283711    82.567422 
    8900    970.51081   -25032.703   -26036.165   -213.07542   -402.66089   -282.42158    45.856212    41.283746    41.283746    82.567492 
    9000    966.29601   -25031.813   -26030.917    10.848026   -220.49325    265.99247   -12.955146    41.283399    41.283399    82.566798 
    9100    969.61494   -25030.959   -26033.494    61.956193    320.07244    -239.0549    104.85104    41.282701    41.282701    82.565403 
    9200    971.52161   -25030.104    -26034.61   -3.5219531    203.43548    354.00809   -568.00943    41.282441    41.282441    82.564882 
    9300    969.40837   -25029.281   -26031.602    113.68701   -126.99565    573.55541   -105.49873    41.282571    41.282571    82.565142 
    9400    969.15807   -25028.497    -26030.56     58.49331    54.387249    33.271548    87.821132    41.283125    41.283125    82.566249 
    9500    969.30851   -25027.777   -26029.995    145.16106    192.51796   -12.488101    255.45334    41.283619    41.283619    82.567238 
    9600    971.75124   -25027.044   -26031.788   -26.082366    72.745074   -754.62269    603.63052    41.284789    41.284789    82.569578 
    9700    976.78098   -25026.273   -26036.218    -81.28105   -288.06232   -276.78173     321.0009    41.286196    41.286196    82.572393 
    9800    969.55603   -25025.602   -26028.077   -38.789356    471.58432   -438.41389    -149.5385    41.286871    41.286871    82.573742 
    9900    970.37794   -25024.944   -26028.268    30.021369     3.110921   -348.86217    435.81535    41.287042    41.287042    82.574084 
   10000     968.8643   -25024.349   -26026.108    66.045779    249.52183   -57.081319    5.6968295    41.286733    41.286733    82.573466 
   10100     966.6471   -25023.698   -26023.164    198.50847   -1.6185409   -8.5217083    605.66565    41.286817    41.286817    82.573634 
   10200    964.62147   -25023.109   -26020.481      124.894    211.71627    83.859061    79.106653    41.286941    41.286941    82.573882 
   10300    961.12462   -25022.575   -26016.332    192.10534    249.37172    284.38864    42.555661    41.287188    41.287188    82.574377 
   10400    969.11011   -25022.085   -26024.099    33.958326   -198.36693    142.56806    157.67385    41.287205    41.287205     82.57441 
   10500    971.12855   -25021.608   -26025.708    110.19583    382.85904   -106.01872    53.747165    41.287162    41.287162    82.574323 
   10600    978.03024   -25021.163     -26032.4   -13.516068   -103.62484    669.12284   -606.04621    41.287319    41.287319    82.574638 
   10700    972.36259   -25020.729   -26026.105    60.245569    232.20203    228.69084   -280.15617    41.287959    41.287959    82.575919 
   10800     970.8546    -25020.28   -26024.097   -3.6883193   -77.032796   -49.924852    115.89269    41.289059    41.289059    82.578118 
   10900     983.8384   -25019.839   -26037.081    -251.1376    12.705565   -423.02316    -343.0952    41.289944    41.289944    82.579889 
   11000    972.66641   -25019.431   -26025.121   -86.492928    189.24131   -455.70492    6.9848321     41.29052     41.29052     82.58104 
   11100    975.00611   -25019.038   -26027.147   -154.56011   -272.57995    57.048149   -248.14852     41.29065     41.29065      82.5813 
   11200    973.98957   -25018.671   -26025.729      20.8094   -119.16386    131.34662    50.245435    41.290073    41.290073    82.580147 
   11300    979.37218   -25018.308   -26030.931   -92.315672   -151.11961       52.305    -178.1324    41.289404    41.289404    82.578809 
   11400    968.87252   -25018.012    -26019.78    118.13478   -117.65928    410.25979    61.803842    41.288668    41.288668    82.577336 
   11500    980.52836   -25017.715   -26031.534   -85.176926   -225.35965    306.67366   -336.84479    41.288315    41.288315     82.57663 
   11600    980.31182   -25017.433   -26031.028   -74.854135    49.367448   -214.44291   -59.486944     41.28833     41.28833    82.576659 
   11700    969.75675   -25017.174   -26019.856    295.82485    152.14785    -279.9936    1015.3203    41.288836    41.288836    82.577671 
   11800    977.48997   -25016.913    -26027.59   -105.05421     287.4511   -344.17676   -258.43696    41.290035    41.290035     82.58007 
   11900    988.78959   -25016.641   -26039.002   -288.56714   -397.12525   -216.25749   -252.31868    41.291505    41.291505     82.58301 
   12000    972.00036   -25016.472   -26021.474   -39.374778    93.995534     39.20962   -251.32949    41.292337    41.292337    82.584673 
   12100    977.67562   -25016.271   -26027.141   -174.50578   -302.70413   -427.60518    206.79198    41.292708    41.292708    82.585416 
   12200    985.30619   -25016.118   -26034.877   -386.40089   -143.66188   -912.86226   -102.67853    41.292283    41.292283    82.584565 
   12300     975.7522   -25016.036   -26024.917     13.19863    65.435725   -266.26148    240.42165    41.290982    41.290982    82.581965 
   12400    972.20794   -25015.947   -26021.163    135.50081     191.3952   -320.83934    535.94657    41.289741    41.289741    82.579481 
   12500    964.10665   -25015.855   -26012.694    323.97313    246.83505    176.12797    548.95638    41.288964    41.288964    82.577929 
   12600    985.90949   -25015.799   -26035.182   -87.127895   -381.18597    188.68324   -68.880952    41.288714    41.288714    82.577428 
   12700    978.07417   -25015.858    -26027.14   -57.280143   -373.26461    206.95486   -5.5306734    41.288383    41.288383    82.576767 
   12800    974.50195   -25015.935   -26023.523     119.4174   -136.62555    363.23352    131.64423    41.288098    41.288098    82.576197 
   12900    974.27616   -25015.977   -26023.332     134.0278   -83.693753    20.156148      465.621    41.288527    41.288527    82.577054 
   13000    963.20085   -25015.996   -26011.899    348.47037    221.77169     453.9348    369.70461    41.289847    41.289847    82.579694 
   13100    975.45948   -25015.975   -26024.553   -138.46349    -362.4749   -6.3730591   -46.542525    41.291655    41.291655     82.58331 
   13200    973.93228   -25015.987   -26022.986   -139.06976    20.357615   -304.56778   -132.99911    41.292583    41.292583    82.585165 
   13300    979.55022   -25016.055   -26028.863   -99.279858   -147.87501    54.571499   -204.53606    41.292303    41.292303    82.584606 
   13400     979.9493   -25016.101   -26029.322    -170.6275   -85.501589   -382.63585   -43.745055    41.291792    41.291792    82.583585 
   13500    969.40965   -25016.105   -26018.428    31.651948   -514.43877    397.40574    211.98887    41.291282    41.291282    82.582563 
   13600    983.69623   -25016.104   -26033.199   -273.82889   -635.20477    13.718719   -200.00062     41.29063     41.29063    82.581259 
   13700    971.90018   -25016.149   -26021.047    54.009397    253.42228   -126.12843    34.734333    41.289502    41.289502    82.579004 
   13800    978.74823   -25016.144   -26028.122    53.708318    34.154785    193.94851   -66.978344    41.288869    41.288869    82.577738 
   13900    964.89583   -25016.184    -26013.84    405.09094    798.98412    720.06219   -303.77347    41.288679    41.288679    82.577358 
   14000    978.72142   -25016.252   -26028.203 -0.032911943   -335.12141    19.772977    315.24969    41.289052    41.289052    82.578104 
   14100     971.7431    -25016.36   -26021.095    121.91405    685.80056   -317.90332   -2.1550779     41.28957     41.28957    82.579141 
   14200    971.03115   -25016.387   -26020.387    131.95785    695.51902   -372.97613    73.330671    41.290823    41.290823    82.581645 
   14300    974.43968   -25016.404   -26023.928    -179.7094   -8.0389348   -420.09014   -110.99912    41.292167    41.292167    82.584334 
   14400    988.06729   -25016.414   -26038.028   -379.76599   -139.37853   -541.43497   -458.48448    41.292905    41.292905     82.58581 
   14500    977.20234   -25016.487   -26026.868   -168.75801   -828.90232    331.27872   -8.6504201     41.29246     41.29246     82.58492 
   14600    974.51849   -25016.544   -26024.149   -37.779013    -304.5007    462.03566     -270.872    41.291515    41.291515     82.58303 
   14700    975.93786   -25016.538   -26025.611    42.487487    250.24513    163.34052   -286.12319    41.290711    41.290711    82.581422 
   14800    965.46244   -25016.557   -26014.799    203.42097    299.49859    281.10949    29.654839    41.289776    41.289776    82.579551 
   14900    978.15328   -25016.536   -26027.899   -39.157541   -115.90977    144.88966   -146.45251    41.289194    41.289194    82.578388 
   15000    979.39746   -25016.528   -26029.178   -14.474594   -501.97367    337.11164    121.43825     41.28878     41.28878    82.577561 
   15100    973.02438   -25016.583   -26022.643    80.856799     298.3761    250.69318   -306.49888    41.288473    41.288473    82.576947 
   15200    983.93636   -25016.563   -26033.906   -165.95983   -16.315279   -224.27802   -257.28618    41.289143    41.289143    82.578285 
   15300    970.58607   -25016.573   -26020.113    79.613803    415.76635    224.04565   -400.97059    41.289843    41.289843    82.579687 
   15400    969.60391    -25016.57   -26019.094    79.087251    106.37025   -188.64165    319.53316    41.290784    41.290784    82.581569 
   15500    973.79951   -25016.605   -26023.467    -43.51355   -271.93522    200.51317   -59.118599    41.291318    41.291318    82.582637 
   15600    963.94833    -25016.66   -26013.337    289.31188    307.88041    275.26014     284.7951     41.29126     41.29126     82.58252 
   15700    971.40422     -25016.7   -26021.086    60.973665    308.35661    23.553138   -148.98875    41.291002    41.291002    82.582003 
   15800    982.39816   -25016.704   -26032.456   -123.66244    -140.5705   -291.18829    60.771466    41.290677    41.290677    82.581355 
   15900    974.21701   -25016.766    -26024.06    99.029226    -339.8944    217.10436    419.87772    41.289936    41.289936    82.579872 
   16000    965.55054   -25016.812   -26015.144    265.74496    -205.0224    657.54251    344.71475    41.289516    41.289516    82.579032 
   16100    970.85622   -25016.826   -26020.644    135.66458    36.008366    165.45908    205.52628     41.28959     41.28959     82.57918 
   16200    971.54941   -25016.871   -26021.406    127.31769    95.838691   -297.76622    583.88059    41.289619    41.289619    82.579238 
   16300    971.82777   -25016.917   -26021.741   -2.8536338   -199.51547   -72.334789    263.28936    41.289622    41.289622    82.579244 
   16400    973.92289   -25016.907   -26023.897    71.877681   -466.92838    287.67549    394.88594    41.289848    41.289848    82.579696 
   16500     979.4983   -25016.901   -26029.655   -226.27023   -385.92558   -26.376202    -266.5089    41.290159    41.290159    82.580318 
   16600    972.49897   -25016.852   -26022.369    58.775316   -223.35861    465.93584   -66.251276    41.290543    41.290543    82.581085 
   16700    967.58175   -25016.815   -26017.248    58.685181    145.51594   -4.5386973    35.078297    41.290684    41.290684    82.581368 
   16800    975.38074   -25016.753    -26025.25    -144.2429     86.89984    53.910426   -573.53897    41.290551    41.290551    82.581103 
   16900    983.83139   -25016.734   -26033.969   -302.39071   -390.70597    108.93374   -625.39989    41.289726    41.289726    82.579453 
   17000    981.84657   -25016.726   -26031.908   -26.301226    369.39072    95.437981   -543.73238    41.288544    41.288544    82.577089 
   17100    977.81838   -25016.769   -26027.787    72.009554    469.55162   -163.80837   -89.714591    41.287635    41.287635     82.57527 
   17200    967.30388   -25016.858   -26017.003    245.39019    35.239135      566.285    134.64645     41.28736     41.28736     82.57472 
   17300    960.91674   -25016.843   -26010.385    485.43933    205.54731    380.55055    870.22013     41.28824     41.28824    82.576481 
   17400    980.43174   -25016.811    -26030.53   -207.11683   -271.75462    147.00789   -496.60375    41.289794    41.289794    82.579587 
   17500    979.34677   -25016.792    -26029.39   -134.75473   -175.70844   -47.154423   -181.40132    41.291171    41.291171    82.582342 
   17600    965.99702   -25016.782   -26015.576    152.55164    97.315889     479.6703   -119.33127    41.292241    41.292241    82.584483 
   17700    977.96662   -25016.727   -26027.897   -169.00906   -1167.3911    229.90968    430.45428    41.293048    41.293048    82.586096 
   17800    964.82456   -25016.691   -26014.274    157.96593    20.295249    281.39348    172.20905    41.292826    41.292826    82.585651 
   17900    973.75556   -25016.671   -26023.488   -2.1091556   -162.09791    284.45455   -128.68411     41.29168     41.29168    82.583359 
   18000    964.82206   -25016.672   -26014.251    262.03142    457.39874   -363.82147    692.51701     41.28997     41.28997    82.579939 
   18100    970.65165   -25016.611   -26020.218    195.77222    185.24335    236.66245    165.41088    41.288951    41.288951    82.577901 
   18200    979.69885   -25016.564   -26029.526   -73.602795      91.1125   -303.07271    -8.848174    41.288584    41.288584    82.577168 
   18300     977.3272   -25016.551   -26027.061   -35.404582   -130.86949   -32.443703    57.099448    41.288133    41.288133    82.576266 
   18400    971.18441   -25016.511   -26020.669    175.39268    622.91424    217.37187   -314.10807    41.288228    41.288228    82.576456 
   18500    973.29561   -25016.397   -26022.737    137.35387   -58.731583    352.29634    118.49686    41.289406    41.289406    82.578811 
   18600    970.63277   -25016.293   -26019.881   -4.9721011   -157.45728   -71.980835    214.52181    41.290908    41.290908    82.581815 
   18700    972.24637    -25016.21   -26021.466   -21.242321   -377.42045    234.18689    79.506604     41.29202     41.29202    82.584039 
   18800    988.31818   -25016.071   -26037.944   -430.24872   -659.81258   -418.12438    -212.8092    41.292688    41.292688    82.585376 
   18900    972.36683   -25015.993   -26021.374   -19.642673   -426.44997    423.10336   -55.581409    41.292205    41.292205     82.58441 
   19000    990.09151   -25015.908   -26039.615   -432.89031   -517.62283   -698.01392   -83.034186     41.29143     41.29143    82.582859 
   19100    970.72381   -25015.889   -26019.571    63.248945   -299.79559    479.18827    10.354154    41.289853    41.289853    82.579705 
   19200    971.55967   -25015.856   -26020.402    294.17793    179.54505    175.39817    527.59057    41.288524    41.288524    82.577047 
   19300    967.60073   -25015.857   -26016.309    301.80591    382.60502    233.80338    289.00933    41.287715    41.287715     82.57543 
   19400    972.02443   -25015.822   -26020.848    215.85896    -141.8595    315.20244    474.23394    41.288095    41.288095     82.57619 
   19500    978.64997   -25015.743    -26027.62    37.265497   -409.51616    193.40736    327.90529    41.289493    41.289493    82.578987 
   19600    974.49167   -25015.696   -26023.274    64.377699    393.12095   -547.93641    347.94856    41.291368    41.291368    82.582736 
   19700    977.62376   -25015.648   -26026.464   -106.73352   -13.220054   -80.156906   -226.82359    41.293548    41.293548    82.587096 
   19800    967.43935   -25015.587   -26015.873    52.976535    119.46365     -10.3967    49.862652    41.295279    41.295279    82.590559 
   19900    965.79369    -25015.52   -26014.104   -103.10539    -244.3585    199.09645   -264.05411    41.296132    41.296132    82.592264 
   20000    968.67665   -25015.431   -26016.996   -45.946886   -99.428959    50.670802     -89.0825    41.295711    41.295711    82.591423 
   20100    972.70312   -25015.284   -26021.012   -1.8910313    247.03091   -11.686072   -241.01793    41.294562    41.294562    82.589125 
   20200     977.4122   -25015.115   -26025.713   -28.452483    -564.7161    62.879368    416.47928    41.293071    41.293071    82.586142 
   20300    983.92698   -25015.046   -26032.379   -79.627709    358.82154   -598.53366   0.82900009    41.290846    41.290846    82.581692 
   20400    975.78977    -25014.99   -26023.909   -10.045876   -4.4128651    375.03383   -400.75859    41.288958    41.288958    82.577917 
   20500    968.16255   -25014.974   -26016.008    372.96538    311.53636    649.46342    157.89635    41.287413    41.287413    82.574827 
   20600    975.41063   -25014.974   -26023.502     97.37362   -294.96177    520.52551    66.557126    41.287069    41.287069    82.574138 
   20700    975.68478   -25014.983   -26023.794    126.28466   -320.97538    399.43493    300.39444    41.287861    41.287861    82.575722 
   20800    972.54817   -25015.003   -26020.571    90.711977     312.3437    98.886192   -139.09396    41.289216    41.289216    82.578432 
   20900    974.89688   -25015.018   -26023.014    45.551725   -821.38731    603.84016    354.20232    41.290862    41.290862    82.581723 
   21000    967.22454   -25015.038   -26015.102    153.23402    436.36716   -155.23012    178.56503    41.292305    41.292305    82.584609 
   21100    974.81612   -25015.038   -26022.951   -80.776646    26.774351    60.138988   -329.24328    41.293493    41.293493    82.586986 
   21200    988.74415   -25014.974   -26037.288   -404.82644   -603.17275   -342.19181   -269.11477    41.294428    41.294428    82.588856 
   21300    980.22735   -25014.931   -26028.439   -336.68561   -421.96259   -146.95388   -441.14035    41.294317    41.294317    82.588633 
   21400    967.49818   -25014.885   -26015.232    43.611145    43.072928    303.08619   -215.32568    41.293194    41.293194    82.586387 
   21500    980.44699   -25014.824   -26028.559   -144.59077   -26.337468   -339.12042   -68.314433    41.291523    41.291523    82.583047 
   21600    977.27236   -25014.794   -26025.246     42.62701   -6.7169845    335.49204   -200.89403    41.289384    41.289384    82.578768 
   21700    975.52003   -25014.744   -26023.385    178.61616    594.84322    602.55676   -661.55149     41.28787     41.28787     82.57574 
   21800     981.6338   -25014.698    -26029.66    -21.48683    243.47543    170.20511   -478.14103    41.287325    41.287325    82.574651 
   21900    977.33361   -25014.661   -26025.177    92.645389    533.12409   -450.08026    194.89233    41.287684    41.287684    82.575369 
   22000    978.24445   -25014.578   -26026.035    67.407562    409.47638    363.58104   -570.83473    41.289347    41.289347    82.578694 
   22100    980.09358   -25014.522   -26027.891   -266.09048    73.432213   -547.00601   -324.69763    41.291668    41.291668    82.583336 
   22200    972.45214   -25014.414   -26019.883   -79.663008    -112.6549   -156.82942    30.495296    41.294105    41.294105    82.588211 
   22300    994.33794   -25014.326   -26042.423   -826.25745   -1419.5382   -47.746556   -1011.4876    41.295807    41.295807    82.591615 
   22400    972.61463   -25014.237   -26019.874   -128.91272   -206.45456    220.98002   -401.26363    41.295996    41.295996    82.591992 
   22500     974.6305   -25014.076   -26021.797   -68.026791   -559.82846    262.93144    92.816643    41.295723    41.295723    82.591446 
   22600    975.18937   -25013.991    -26022.29   -124.46702     -147.209   -504.72383    278.53176    41.294304    41.294304    82.588609 
   22700    966.81872   -25013.911   -26013.555    145.54829    303.43878   -285.03342    418.23952    41.292232    41.292232    82.584465 
   22800    965.73028   -25013.875   -26012.394    402.52036   -111.29115    747.37495    571.47728    41.289957    41.289957    82.579914 
   22900    975.55708   -25013.838   -26022.518    109.00443   -555.20294    347.89573    534.32052    41.288672    41.288672    82.577344 
   23000    970.31454   -25013.856   -26017.115    364.29729    206.42215    250.24052    636.22919    41.287933    41.287933    82.575866 
   23100    960.96909   -25013.868   -26007.464    360.39578    168.70143    273.69925    638.78665    41.288447    41.288447    82.576894 
   23200    980.32714   -25013.777   -26027.388   -28.962948   -123.38224   -328.39711     364.8905    41.290178    41.290178    82.580356 
   23300     989.5428   -25013.739   -26036.879   -419.27415   -861.29633   -471.24971    74.723598     41.29192     41.29192    82.583841 
   23400    974.88142   -25013.732   -26021.712   -100.23971     23.40133    84.768011   -408.88848    41.293164    41.293164    82.586328 
   23500    966.79817   -25013.771   -26013.394    157.12161   -355.24523    791.55538    35.054681    41.293653    41.293653    82.587306 
   23600     970.1085   -25013.812   -26016.857   -1.1020574    -501.7419    96.051074    402.38465    41.293658    41.293658    82.587317 
   23700    970.01766   -25013.842   -26016.793   -3.1981073    230.35065     380.3139   -620.25887    41.293101    41.293101    82.586202 
   23800    974.10028   -25013.851   -26021.024   -107.49492    359.17628   -95.863433    -585.7976    41.292265    41.292265     82.58453 
   23900    979.34342   -25013.896    -26026.49   -89.942898   -35.989591     207.4909      -441.33    41.291033    41.291033    82.582066 
   24000    974.04499   -25013.967   -26021.083    99.716671     685.6716     76.43064   -462.95222     41.28968     41.28968    82.579359 
   24100    975.12539   -25014.035   -26022.268    102.83836    -261.2263    889.85826   -320.11688    41.288948    41.288948    82.577897 
   24200    974.87155   -25014.076   -26022.046    39.470218    -335.7947   -671.96698    1126.1723    41.289063    41.289063    82.578126 
   24300    968.92844   -25014.121   -26015.947    65.600228    -604.3386    414.05455    387.08474    41.289666    41.289666    82.579332 
   24400    970.01593   -25014.165   -26017.115    115.85238    30.315663    124.33462    192.90686    41.290247    41.290247    82.580493 
   24500     971.8397   -25014.175    -26019.01    150.51334    36.037573   -34.963678    450.46612    41.291015    41.291015    82.582031 
   24600    975.35191    -25014.18   -26022.647    21.148459    126.83862   -39.477833   -23.915406    41.292371    41.292371    82.584743 
   24700    975.30271   -25014.149   -26022.566   -166.23888   -350.06695   -613.87412    465.22442    41.293911    41.293911    82.587822 
   24800    984.92332   -25014.127    -26032.49   -387.75113   -589.81831   -700.27794    126.84285    41.294631    41.294631    82.589262 
   24900     965.3653   -25014.169    -26012.31    129.44787   -178.94636    172.65794    394.63202    41.294067    41.294067    82.588134 
   25000    984.77911    -25014.14   -26032.355   -361.94537   -982.23672    141.47874   -245.07813     41.29337     41.29337     82.58674 
   25100     979.9085   -25014.122   -26027.301   -186.10544    2.2778598   -1021.4689    460.87473    41.292292    41.292292    82.584584 
   25200     974.5957   -25014.121   -26021.806    69.325855    382.33102   -517.75459    343.40113    41.290944    41.290944    82.581889 
   25300    966.70796   -25014.136   -26013.665      313.628     363.3748    161.83036    415.67883    41.289904    41.289904    82.579808 
   25400     980.7005   -25014.075   -26028.072    53.778208    405.36141    -253.0148    8.9880181    41.289921    41.289921    82.579842 
   25500    974.59152   -25014.014   -26021.695    6.0237393    392.75367   -195.07515   -179.60729     41.29069     41.29069     82.58138 
   25600    980.73308   -25013.971   -26028.002   -87.495938   -250.22981    -216.5553     204.2973    41.291411    41.291411    82.582823 
   25700    976.01776   -25014.007   -26023.162    -94.90692   -160.44026   -889.65325    765.37276    41.291667    41.291667    82.583335 
   25800    971.51261   -25014.022   -26018.519   -14.807892   -272.31418   -208.41994    436.31044    41.292021    41.292021    82.584041 
   25900    976.77193   -25014.026   -26023.962   -145.49064   -242.10842   -45.655806   -148.70771    41.292072    41.292072    82.584145 
   26000    976.38465   -25014.048   -26023.583   -88.267459    179.21995   -416.12126   -27.901064    41.291713    41.291713    82.583427 
   26100    977.52794   -25014.042   -26024.759   -51.993695     -292.419    330.02457   -193.58666    41.291658    41.291658    82.583317 
   26200    978.35591   -25014.063   -26025.636   -66.502068    -253.7446   -12.377311    66.615706    41.291497    41.291497    82.582994 
   26300    975.72086   -25014.126   -26022.974    31.557065    83.758548   -26.652292    37.564938    41.290995    41.290995    82.581989 
   26400     980.6411   -25014.176   -26028.112   -99.119976    -524.8915   -238.81221    466.34378     41.29056     41.29056     82.58112 
   26500    976.23622   -25014.307   -26023.688   -14.478318   -312.66035    190.55051    78.674891    41.289489    41.289489    82.578977 
   26600    978.12032   -25014.356   -26025.686    25.674494   -127.68858    306.71238   -102.00031    41.289151    41.289151    82.578303 
   26700    967.95104    -25014.43   -26015.245    64.717023    37.494096    411.22228   -254.56531    41.289012    41.289012    82.578024 
   26800       969.68    -25014.45   -26017.052    187.38791    4.2956747    205.29418    352.57387    41.289101    41.289101    82.578202 
   26900    973.84954   -25014.434   -26021.348    119.88232    295.32747   -316.27169    380.59117    41.289527    41.289527    82.579053 
   27000    971.15279   -25014.417   -26018.542    54.315792    215.20856    133.84456   -186.10575    41.290216    41.290216    82.580432 
   27100    978.85358    -25014.45   -26026.538    -16.92836    -457.9118      299.343    107.78372    41.290791    41.290791    82.581582 
   27200    979.05849   -25014.394   -26026.693   -120.44647   -335.83685    75.902881   -101.40544    41.292277    41.292277    82.584553 
   27300    990.36191   -25014.272   -26038.259   -583.91616   -143.36724    -575.8772    -1032.504    41.293983    41.293983    82.587965 
   27400    986.28107   -25014.198   -26033.965   -431.54513   -49.777548   -416.08532   -828.77252    41.294578    41.294578    82.589156 
   27500    972.44464   -25014.169    -26019.63   -79.012075    253.29114    86.169274   -576.49664     41.29392     41.29392    82.587839 
   27600    973.34762     -25014.1   -26020.494    9.7601604    180.27145   -291.71717    140.72621    41.292809    41.292809    82.585618 
   27700    971.36716       -25014   -26018.347    116.62411   -360.29237    659.64234    50.522372    41.291709    41.291709    82.583418 
   27800    970.17261   -25013.897   -26017.009    126.77436   -332.31942   -208.73832    921.38081    41.290747    41.290747    82.581495 
   27900    969.90749   -25013.828   -26016.666    192.60033    170.78448   -156.50353    563.52003    41.289833    41.289833    82.579665 
   28000    978.55646   -25013.738   -26025.518   -53.349398   -135.05458    361.82725   -386.82086    41.289754    41.289754    82.579508 
   28100    977.27372   -25013.646     -26024.1   -56.520707    28.641822    34.297737   -232.50168    41.290118    41.290118    82.580237 
   28200    957.01303   -25013.661   -26003.166    469.11843    776.20226    257.87902      373.274    41.290014    41.290014    82.580029 
   28300    971.26539   -25013.638    -26017.88    182.97065    157.34749   -267.63585    659.20032    41.290522    41.290522    82.581044 
   28400    978.99958   -25013.614   -26025.853    -71.66166    453.69981   -312.58946   -356.09532    41.291473    41.291473    82.582947 
   28500    967.43562   -25013.598    -26013.88    52.200609   -163.87616   -10.995862    331.47385    41.292262    41.292262    82.584524 
   28600    986.40911   -25013.544   -26033.443   -267.51951   -876.89621    45.595782    28.741889    41.292807    41.292807    82.585615 
   28700      981.704   -25013.576    -26028.61   -266.95449   -1046.9269   -308.82481    554.88824    41.292766    41.292766    82.585533 
   28800      974.689   -25013.574   -26021.355    10.798505   -531.92934    220.22969    344.09516     41.29285     41.29285      82.5857 
   28900    979.80308   -25013.605   -26026.674   -133.04735   -122.50994    -95.31937   -181.31274    41.292736    41.292736    82.585473 
   29000    968.73825   -25013.706   -26015.334    120.71412    31.077015   -26.344418    357.40976    41.291958    41.291958    82.583915 
   29100    981.47849   -25013.843   -26028.645    -51.48042   -158.59712   -174.36047    178.51633    41.290747    41.290747    82.581494 
   29200     971.2322   -25014.002    -26018.21    258.59281    174.25513   -34.058809    635.58212    41.289733    41.289733    82.579465 
   29300    976.23189    -25014.12   -26023.497    128.37352   -85.426714   -94.013482    564.56076    41.289543    41.289543    82.579086 
   29400    983.76343   -25014.272   -26031.436   -115.18205    174.80775   -164.77983   -355.57408    41.289676    41.289676    82.579352 
   29500    986.90251   -25014.392   -26034.802    -144.2344   -387.96521   -210.06067    165.32267    41.290595    41.290595     82.58119 
   29600    978.34268   -25014.496   -26026.055   -155.53487   -516.21836    4.7416122     44.87213    41.291934    41.291934    82.583868 
   29700    976.09715   -25014.562     -26023.8   -39.665489   -397.95129     2.836547    276.11828    41.293253    41.293253    82.586506 
   29800     975.1241   -25014.619   -26022.851   -221.44045    -278.9674    337.36495    -722.7189     41.29416     41.29416     82.58832 
   29900     968.2942   -25014.668   -26015.838 0.0096158743   -45.802875    96.681285   -50.849562    41.294149    41.294149    82.588298 
   30000    985.09501    -25014.67   -26033.211   -394.13507   -214.22283   -562.61369   -405.56869     41.29361     41.29361    82.587219 
   30100    980.91777   -25014.696   -26028.918   -163.99274    180.04516    -349.9274   -322.09599     41.29223     41.29223    82.584461 
   30200    981.77625   -25014.758   -26029.867   -155.06687    202.37885   -517.22746   -150.35201     41.29045     41.29045      82.5809 
   30300    974.45136   -25014.777   -26022.312    87.770445     71.79308     281.4776   -89.959343    41.289062    41.289062    82.578123 
   30400    973.92758   -25014.825   -26021.819    223.57567   -100.51814    580.52436     190.7208    41.287985    41.287985     82.57597 
   30500     961.5041   -25014.883   -26009.032    583.14822    828.82959    330.49976    590.11531    41.287633    41.287633    82.575266 
   30600    972.66075   -25014.925    -26020.61    207.25711    -121.5914    589.27137    154.09137    41.288489    41.288489    82.576978 
   30700    975.85455   -25014.996   -26023.983    95.729656    201.70747   -34.899227    120.38072    41.289856    41.289856    82.579713 
   30800    975.06832   -25015.058   -26023.232    -19.09559    107.77403   -124.89182   -40.168984    41.291558    41.291558    82.583116 
   30900    977.98628   -25015.118   -26026.308    -95.30495    139.83423   -587.23208      161.483    41.293167    41.293167    82.586334 
   31000     977.7676   -25015.199   -26026.164   -239.42761    99.092804   -280.25813   -537.11751    41.294137    41.294137    82.588275 
   31100    978.85581   -25015.182   -26027.272   -232.23641    274.69816   -800.23003   -171.17736    41.294915    41.294915    82.589831 
   31200    979.01224    -25015.13   -26027.382    -330.8185   -641.81592   -461.50049    110.86092    41.295026    41.295026    82.590051 
   31300    976.68985   -25015.076   -26024.926   -189.78317    12.835976   -301.37598   -280.80951    41.294429    41.294429    82.588858 
   31400    970.89217   -25015.023   -26018.879    20.449478    404.86612   -40.211493   -303.30619    41.293175    41.293175    82.586349 
   31500    981.66149   -25014.936   -26029.927   -166.94393    242.57559   -717.48429   -25.923086    41.291664    41.291664    82.583327 
   31600    984.07494   -25014.863   -26032.349   -156.74149    -495.9765    206.79821   -181.04617    41.290024    41.290024    82.580049 
   31700    975.85734     -25014.8   -26023.789    164.38742    87.339163    305.86317    99.959914    41.288897    41.288897    82.577795 
   31800    971.24066   -25014.747   -26018.963    144.55226     543.6767   -280.48852    170.46859    41.288712    41.288712    82.577423 
   31900     984.1592   -25014.728   -26032.301   -172.77393    349.15528   -175.18045   -692.29662    41.288892    41.288892    82.577783 
   32000     972.9473   -25014.708   -26020.689    130.08215   -327.49775     347.3201     370.4241    41.289363    41.289363    82.578726 
   32100    960.37356   -25014.694   -26007.674     361.8479    56.637651     273.3164    755.58966    41.290096    41.290096    82.580191 
   32200    980.74489   -25014.656   -26028.699   -36.773739   -437.18343    532.94838   -206.08616    41.291076    41.291076    82.582152 
   32300    981.81884   -25014.631   -26029.784   -201.38896    -165.1972   -690.17752    251.20783    41.291916    41.291916    82.583831 
   32400    969.86402   -25014.663   -26017.456    103.62916   -462.53527    332.28717    441.13559    41.291955    41.291955     82.58391 
   32500    976.67686   -25014.669   -26024.506   -168.69696   -70.700563   -362.07349    -73.31684     41.29209     41.29209    82.584179 
   32600    981.64218   -25014.631   -26029.602   -162.44777    126.60538   -473.36769     -140.581    41.292202    41.292202    82.584404 
   32700    972.24874   -25014.567   -26019.826   -106.73099   -603.51781   -97.518164    380.84299    41.292204    41.292204    82.584407 
   32800    980.87852   -25014.457   -26028.638   -171.65478    233.10035   -789.12352    41.058826     41.29183     41.29183     82.58366 
   32900    977.71518   -25014.421   -26025.332   -47.377988    478.89183   -627.61045    6.5846573    41.290607    41.290607    82.581215 
   33000    978.78363   -25014.387   -26026.402    63.623303   -96.508697    204.22036    83.158249    41.289509    41.289509    82.579018 
   33100    987.44457     -25014.4    -26035.37   -187.24316   -336.32327    474.41541   -699.82162    41.288931    41.288931    82.577862 
   33200    978.17662   -25014.471   -26025.858    33.426738   -212.74809    684.91322   -371.88491    41.288868    41.288868    82.577737 
   33300    965.50265   -25014.463   -26012.746    367.85558   -75.440263    901.65188    277.35512    41.289998    41.289998    82.579996 
   33400    978.33545   -25014.427   -26025.979   -185.03328   -334.70607    141.64786   -362.04162    41.292069    41.292069    82.584138 
   33500    980.05214   -25014.328   -26027.655   -203.08684   -81.073666   -393.27997   -134.90687    41.294279    41.294279    82.588559 
   33600    970.81393   -25014.264   -26018.039   -118.39445   -327.87829   -208.24487    180.93981    41.295418    41.295418    82.590837 
   33700    976.10605   -25014.238   -26023.485    -226.2525    132.12707   -308.56935   -502.31522    41.295196    41.295196    82.590392 
   33800    969.21385   -25014.196   -26016.316    118.30312    550.77149   -543.78395    347.92183    41.293934    41.293934    82.587867 
   33900    974.49323   -25014.145   -26021.724   -116.56002   -676.69276   -314.00469     641.0174    41.292416    41.292416    82.584831 
   34000    990.83559    -25014.07   -26038.546   -213.20162    156.51659    34.457614   -830.57907    41.290997    41.290997    82.581993 
   34100     968.2886    -25014.08   -26015.244     325.4724   -29.576964    891.16253    114.83164    41.289806    41.289806    82.579612 
   34200    981.37394   -25014.004   -26028.697   -216.32767   -663.50752     519.7147   -505.19018    41.289979    41.289979    82.579958 
   34300      967.322    -25013.97   -26014.135    219.01268    267.92479    64.303805    324.80943    41.290027    41.290027    82.580053 
   34400    980.27475   -25013.936   -26027.493   -66.073694    -236.5805    1056.6448   -1018.2854    41.290337    41.290337    82.580674 
   34500     975.3365   -25013.945   -26022.396     48.52684    678.00902    -687.7339     155.3054    41.290529    41.290529    82.581058 
   34600       979.08    -25013.96   -26026.282   -179.52456   -488.28565    -209.5927    159.30467    41.290991    41.290991    82.581982 
   34700    977.26262   -25013.971   -26024.413    -25.99924   -337.91551   -51.859963    311.77775    41.291357    41.291357    82.582714 
   34800     977.5865   -25013.953    -26024.73   -132.74217    294.43545   -191.01152   -501.65045    41.291901    41.291901    82.583803 
   34900    971.39152   -25013.942   -26018.314    61.085638    95.795056   -132.05201    219.51387    41.292134    41.292134    82.584269 
   35000     966.4871   -25013.925   -26013.226    226.82326    248.62191    363.18719    68.660692    41.292026    41.292026    82.584052 
   35100    986.66084   -25013.877   -26034.037   -381.44724   -683.43393   -298.81648    -162.0913    41.292136    41.292136    82.584273 
   35200    976.08181   -25013.915   -26023.137   -46.620999    13.760991   -482.47723    328.85324    41.291355    41.291355     82.58271 
   35300    975.43652   -25013.927   -26022.482   -13.251342   -240.22023    242.21261   -41.746409    41.290727    41.290727    82.581454 
   35400      976.871   -25013.908   -26023.945    -41.71503    82.277105   -142.73159   -64.690606    41.290287    41.290287    82.580574 
   35500    985.13551   -25013.916   -26032.498   -140.90518   -141.62985   -60.337256   -220.74842    41.289755    41.289755     82.57951 
   35600      969.899   -25013.985   -26016.814    167.38727   -121.03364     561.9072    61.288239    41.289039    41.289039    82.578079 
   35700    969.79772   -25014.058   -26016.782    337.08379    154.26123   -132.71546    989.70559    41.288692    41.288692    82.577385 
   35800    976.32009   -25014.119   -26023.588    26.895598     -214.315   -279.93494    574.93674    41.289217    41.289217    82.578433 
   35900    970.50948   -25014.192   -26017.652    175.05909    163.66722    360.57957   0.93048413    41.290089    41.290089    82.580177 
   36000    963.67416    -25014.31   -26010.702    420.06618    882.12294    223.86489    154.21073    41.290804    41.290804    82.581608 
   36100    970.66187   -25014.387   -26018.005     104.1229    447.50797   -28.906388   -106.23287    41.292227    41.292227    82.584455 
   36200    989.87272   -25014.456   -26037.937   -420.24832   -706.69857     -409.791   -144.25538    41.293575    41.293575     82.58715 
   36300    980.06293    -25014.56   -26027.898   -367.22951   -292.16185   -62.619498   -746.90718    41.294006    41.294006    82.588011 
   36400    974.97917   -25014.647   -26022.729   -127.62048   -665.61121    -34.58761    317.33737    41.293517    41.293517    82.587034 
   36500    966.43205   -25014.691   -26013.936    134.74861   -550.52802    382.66099    572.11285    41.292713    41.292713    82.585426 
   36600    969.31683   -25014.682   -26016.909    205.63494    135.26116    352.64369    128.99997    41.291984    41.291984    82.583969 
   36700    974.62682   -25014.723   -26022.441    11.019731   -38.860656    35.934344    35.985506    41.290884    41.290884    82.581768 
   36800    982.41497   -25014.727   -26030.496   -70.898779   -486.61111    457.25945   -183.34468    41.290104    41.290104    82.580209 
   36900    993.68684   -25014.774   -26042.199   -354.16186   -532.49546   -274.42992   -255.56019    41.289295    41.289295    82.578591 
   37000     975.3246   -25014.861   -26023.299    146.34099   -268.50387    376.45361    331.07324    41.288766    41.288766    82.577532 
   37100    991.61351   -25014.956   -26040.237   -280.27937   -99.712677   -139.05365   -602.07178    41.288935    41.288935    82.577869 
   37200    972.39061   -25015.047   -26020.452    128.54481   -197.81254    321.19114    262.25583    41.289376    41.289376    82.578751 
   37300    977.99074   -25015.149   -26026.345   -62.787894    321.65431   -127.29565   -382.72234    41.289945    41.289945     82.57989 
   37400    980.45763   -25015.258   -26029.004   -79.564871    68.726497    131.85104   -439.27215    41.290571    41.290571    82.581143 
   37500    968.04322   -25015.402   -26016.312    172.59022   -159.35495     281.0446    396.08101    41.291255    41.291255    82.582511 
   37600    972.01442   -25015.477   -26020.493    31.635125   -3.2017323    320.69156   -222.58446    41.292587    41.292587    82.585173 
   37700    979.80302   -25015.554   -26028.624   -219.53462     -117.801    198.46987   -739.27275    41.293619    41.293619    82.587238 
   37800    986.42424   -25015.653   -26035.568   -498.18499   -619.26197   -663.60716   -211.68584    41.293816    41.293816    82.587632 
   37900    972.75379   -25015.769   -26021.549    51.442807    281.40167    134.68082   -261.75407    41.293057    41.293057    82.586115 
   38000    963.83937    -25015.85   -26012.413    156.11195    368.41451   -65.122222    165.04356    41.292016    41.292016    82.584033 
   38100    962.81371   -25015.923   -26011.427    414.15158     595.5146    -253.3012    900.24134    41.290495    41.290495    82.580991 
   38200     973.7222   -25015.987   -26022.769    97.249374   -217.41078    952.11726   -442.95836    41.289328    41.289328    82.578656 
   38300    977.21396   -25016.051   -26026.443    90.438685    513.53284   -470.49699     228.2802    41.288752    41.288752    82.577505 
   38400     973.4045   -25016.171   -26022.624    180.84721   -192.80322    158.43467    576.91017    41.288648    41.288648    82.577295 
   38500    978.23976   -25016.316   -26027.769   -62.536278    28.784099   -116.16207   -100.23086    41.289162    41.289162    82.578324 
   38600    976.10778   -25016.472    -26025.72    46.092457   -16.742128    663.06753   -508.04803    41.289786    41.289786    82.579573 
   38700    980.62256   -25016.668   -26030.584   -94.329465   -74.725579   -135.83436   -72.428459    41.290099    41.290099    82.580199 
   38800    971.27817   -25016.877   -26021.132    95.789922   -380.79196    444.91383    223.24789    41.290178    41.290178    82.580356 
   38900    970.73769   -25016.915   -26020.611    40.325992   -18.196284   -71.688222    210.86248    41.291229    41.291229    82.582457 
   39000    970.84154   -25016.888   -26020.692   -85.274749    414.28763   -564.35952   -105.75236    41.292502    41.292502    82.585003 
   39100     978.9633   -25016.832   -26029.033   -213.76098   -680.28191    326.92336   -287.92438    41.293137    41.293137    82.586274 
   39200     980.5441   -25016.855    -26030.69   -326.45763   -526.62839   -186.47445   -266.27006    41.292496    41.292496    82.584993 
   39300    971.65974   -25016.861    -26021.51   -43.503893    230.90403   -3.7548637   -357.66084    41.291249    41.291249    82.582499 
   39400    973.10212   -25016.788   -26022.929    4.4692074    269.17255   -258.26135    2.4964172    41.290249    41.290249    82.580498 
   39500    970.38761   -25016.746    -26020.08    65.222146    581.67032   -317.45168   -68.552202    41.289076    41.289076    82.578153 
   39600    972.91601    -25016.68   -26022.628    98.804325    36.918043    558.89055   -299.39562     41.28817     41.28817    82.576341 
   39700    974.20257   -25016.638   -26023.916    107.60519   -156.42887    355.42892    123.81552     41.28753     41.28753     82.57506 
   39800    968.42205   -25016.589   -26017.891     337.7496    512.88544    203.55848    296.80487     41.28741     41.28741     82.57482 
   39900    973.50821   -25016.529   -26023.089    64.275871    1111.1513   -135.28454   -783.03919    41.288188    41.288188    82.576375 
   40000    978.21414   -25016.492   -26027.918   -30.550884    66.747935   -84.737211   -73.663377    41.289008    41.289008    82.578015 
   40100    963.78018   -25016.488    -26012.99    292.32568   -56.503294    822.66027    110.82006    41.289687    41.289687    82.579374 
   40200    977.95257   -25016.437   -26027.593   -197.88638    -240.0098   -56.563896   -297.08545    41.290721    41.290721    82.581442 
   40300    971.21122   -25016.372   -26020.557    49.843275   -477.86774    647.47709   -20.079526    41.291163    41.291163    82.582326 
   40400    982.39858   -25016.309   -26032.062   -345.11477   -415.65026   -290.82871   -328.86533    41.291456    41.291456    82.582913 
   40500    985.80133   -25016.196   -26035.467   -242.61601   -402.76512    3.0714993   -328.15441     41.29177     41.29177     82.58354 
   40600    965.75129   -25016.169   -26014.709    201.36656    263.60083    88.356282    252.14256     41.29151     41.29151     82.58302 
   40700    978.48621   -25016.079   -26027.787   -120.06055   -263.12596    288.94972   -386.00542    41.291542    41.291542    82.583084 
   40800    980.31051   -25016.011   -26029.605   -135.50975    -347.0401   -536.00568    476.51654    41.291177    41.291177    82.582354 
   40900    974.34797   -25015.929   -26023.358   -89.325676   -43.632755   -238.38118    14.036902    41.290752    41.290752    82.581504 
   41000    976.73555   -25015.871   -26025.769    51.290214    297.11037   -303.17081    159.93108     41.29007     41.29007    82.580139 
   41100    977.92804   -25015.776   -26026.906   -100.45885   -391.05582    172.65413   -82.974869    41.290172    41.290172    82.580344 
   41200    977.62977   -25015.689   -26026.512   -64.421682   -564.98957    431.43969   -59.715171    41.290394    41.290394    82.580787 
   41300    976.10559   -25015.606   -26024.852     25.64186   -329.45601   -123.28527    529.66686    41.290727    41.290727    82.581454 
   41400    974.21382    -25015.53    -26022.82   0.83687391    19.391766    107.94759   -124.82874    41.291178    41.291178    82.582355 
   41500    980.82723   -25015.434   -26029.562   -187.16231   -483.40264    90.025782   -168.11008     41.29163     41.29163     82.58326 
   41600    968.11761   -25015.451   -26016.438    200.34572    83.612589     835.5079   -318.08333    41.291097    41.291097    82.582194 
   41700    971.15252   -25015.456   -26019.581    45.354134   -527.35982    275.02205    388.40017    41.290984    41.290984    82.581967 
   41800    986.16067   -25015.446   -26035.089   -215.17078   -760.87368    150.64531   -35.283965    41.291138    41.291138    82.582276 
   41900    973.02242   -25015.521   -26021.579    88.565707    18.264984   -214.06667     461.4988    41.290676    41.290676    82.581352 
   42000     973.8457   -25015.586   -26022.495    -26.06499   -363.13526   -105.81762    390.75792    41.290179    41.290179    82.580359 
   42100    982.92543   -25015.641   -26031.938   -83.131123    201.72421   -148.40089   -302.71669    41.289568    41.289568    82.579136 
   42200    981.95614   -25015.668   -26030.964   -145.14053   -130.46188    139.68432   -444.64403     41.28932     41.28932    82.578639 
   42300     982.3281   -25015.638   -26031.318   -144.21143   -292.19685    245.52898   -385.96642    41.289605    41.289605     82.57921 
   42400    975.56677   -25015.658   -26024.347   -7.7519732    733.74479   -681.97275   -75.027959    41.289619    41.289619    82.579237 
   42500     969.7022   -25015.647   -26018.273     193.4325    586.35559   -250.41559    244.35749    41.289791    41.289791    82.579582 
   42600    966.81092   -25015.563   -26015.199    141.37085   -108.19436   -127.79821    660.10512     41.29057     41.29057    82.581141 
   42700    975.73016   -25015.447   -26024.305   -147.80462   -108.16107   -509.49632    174.24352      41.2913      41.2913      82.5826 
   42800    976.52108   -25015.279   -26024.955   -56.265176    234.32777   -407.12649    4.0031878    41.291863    41.291863    82.583725 
   42900    966.14304   -25015.141   -26014.086    128.37673    217.58575    208.51928   -40.974849    41.292089    41.292089    82.584178 
   43000    975.42459   -25015.047   -26023.589   -59.878892   -419.47552    83.834543     156.0043    41.291715    41.291715     82.58343 
   43100    975.28524   -25014.962    -26023.36   -27.848347    34.708227     471.5935   -589.84677    41.291096    41.291096    82.582191 
   43200    977.82833    -25014.82   -26025.847    -37.83334    196.23965    236.54048   -546.28015    41.290789    41.290789    82.581579 
   43300    983.75923   -25014.699   -26031.859    -199.5826   -429.60692    33.378375   -202.51926    41.290481    41.290481    82.580963 
   43400    972.36809   -25014.566   -26019.948    36.181493   -335.43012    501.99648   -58.021876     41.29053     41.29053    82.581061 
   43500    978.71399    -25014.44   -26026.383   -124.91163    334.03276    164.26816    -873.0358    41.291009    41.291009    82.582019 
   43600    982.64919   -25014.361   -26030.373   -157.61132   -187.91914    25.002463   -309.91728    41.291167    41.291167    82.582334 
   43700    975.24878   -25014.276   -26022.637   -37.567414    60.344559    12.459395    -185.5062    41.291283    41.291283    82.582566 
   43800    966.00592   -25014.161   -26012.965    129.00957    466.21125    141.74188   -220.92443    41.291789    41.291789    82.583577 
   43900    983.90458   -25014.074   -26031.384   -204.30303   -175.95265    -354.3246   -82.631839    41.292246    41.292246    82.584492 
   44000     976.8386   -25014.055   -26024.059   -106.75075   -19.942072   -107.21503   -193.09515    41.292352    41.292352    82.584703 
   44100    966.24499   -25014.036   -26013.087    126.00159   -114.92791    86.214934    406.71774    41.292347    41.292347    82.584694 
   44200    979.59988   -25014.074   -26026.933    -45.36444    354.27492   -288.06582   -202.30241    41.291768    41.291768    82.583535 
   44300     972.1106   -25014.156   -26019.272     107.3639   -175.11548    508.99839   -11.791189    41.290842    41.290842    82.581683 
   44400    986.52824   -25014.198   -26034.221   -210.98019   -195.48726   -617.50171    180.04841    41.290358    41.290358    82.580716 
   44500    969.78116   -25014.279   -26016.986    278.34878    454.30499   -287.03182    667.77318      41.2897      41.2897    82.579401 
   44600    989.73009   -25014.333   -26037.667   -201.79891   -267.39087   -55.028438   -282.97743    41.289585    41.289585    82.579169 
   44700    979.16658   -25014.465   -26026.876    23.407624   -17.092321    319.84446   -232.52926    41.289467    41.289467    82.578933 
   44800     978.2283   -25014.627   -26026.068   -20.527881   -114.80087   -249.53719    302.75441    41.289446    41.289446    82.578892 
   44900    972.75387   -25014.784   -26020.565    39.292561    108.82192   -286.19069    295.24645    41.289772    41.289772    82.579545 
   45000    976.27806   -25014.901   -26024.325    14.415632   -117.88111   -39.057092     200.1851     41.29042     41.29042     82.58084 
   45100    976.42681   -25015.027   -26024.605   -255.88358   -351.38202   -20.027543   -396.24117    41.290694    41.290694    82.581388 
   45200    977.39598   -25015.106   -26025.686    -89.91076   -45.664172    6.4849353   -230.55304    41.290344    41.290344    82.580688 
   45300    960.13399   -25015.159   -26007.891    375.00728    430.43553    237.59381    456.99252    41.290124    41.290124    82.580248 
   45400    973.93564   -25015.157    -26022.16    55.332038    101.59519   -214.82397    279.22488    41.290559    41.290559    82.581117 
   45500    989.71598   -25015.156   -26038.475   -422.97563   -470.79837   -492.28876   -305.83975    41.290987    41.290987    82.581973 
   45600    967.74413   -25015.185   -26015.786    170.91323    54.697677    275.16309    182.87893    41.290968    41.290968    82.581937 
   45700    969.27779   -25015.144   -26017.331    80.213801    390.58588   -3.4962199   -146.44825    41.291249    41.291249    82.582499 
   45800     982.7433   -25015.086   -26031.196   -229.60337   -414.70742   -700.88956    426.78687    41.291232    41.291232    82.582465 
   45900    977.42898   -25015.036    -26025.65   -60.502153   -137.76179    137.36871   -181.11338    41.290699    41.290699    82.581399 
   46000    968.45151   -25014.971   -26016.303    336.92935    180.88437    302.91595    526.98774    41.290208    41.290208    82.580417 
   46100    979.97195   -25014.915   -26028.159   -89.712184   -335.56651    450.24751   -383.81755    41.290202    41.290202    82.580403 
   46200    981.92749   -25014.907   -26030.172   -132.02418   -113.06363   -371.79029    88.781384    41.290178    41.290178    82.580357 
   46300       981.68   -25014.907   -26029.917   -108.08988   -503.75554     356.7734   -177.28751    41.290419    41.290419    82.580837 
   46400    979.86515   -25014.923   -26028.056   -187.56448   -642.44119   -221.68143    301.42918    41.290658    41.290658    82.581317 
   46500     968.5807   -25014.915   -26016.381    130.31977   -25.161473    515.53518   -99.414386    41.290823    41.290823    82.581646 
   46600    982.80836   -25014.915   -26031.092   -115.87083   -5.6965629   -401.23825    59.322326    41.290807    41.290807    82.581614 
   46700    972.47174   -25014.966   -26020.455    80.934651   -67.491915    437.47054   -127.17467    41.290666    41.290666    82.581332 
   46800    976.93199   -25015.003   -26025.104   -42.109279    474.86544   -437.86692   -163.32635    41.290904    41.290904    82.581808 
   46900    968.85037   -25015.056   -26016.801    145.35282    69.717173   -266.61879    632.96008    41.291049    41.291049    82.582098 
   47000    974.44434   -25015.052    -26022.58   -42.779683    -430.0214    -25.23882    326.92118    41.291482    41.291482    82.582964 
   47100    974.89571   -25015.042   -26023.038    12.159408    230.64196    50.739356   -244.90309    41.291792    41.291792    82.583585 
   47200    980.27602   -25015.074   -26028.632   -128.30207   -55.978542   -207.48329   -121.44438    41.291767    41.291767    82.583534 
   47300    980.34184   -25015.138   -26028.764   -63.830359    269.03501    327.90757   -788.43366    41.291433    41.291433    82.582865 
   47400      976.449   -25015.219    -26024.82   -50.741337    54.371275   -86.889927   -119.70536    41.291197    41.291197    82.582395 
   47500    964.77474   -25015.323   -26012.853    283.09594    258.10015    496.15992    95.027742    41.290693    41.290693    82.581386 
   47600      986.107   -25015.437   -26035.024   -251.42478    228.31503   -447.05461   -535.53476    41.290369    41.290369    82.580739 
   47700    978.06139   -25015.605   -26026.874   -17.469059    2.5794256   -91.271617    36.285016    41.289641    41.289641    82.579283 
   47800    976.69821   -25015.696   -26025.555    23.837092    252.00525   -17.745206   -162.74877    41.289538    41.289538    82.579076 
   47900    977.70694   -25015.745   -26026.647   -62.981855   -494.57515   -734.19817    1039.8278     41.28996     41.28996    82.579919 
   48000    970.99078   -25015.757   -26019.714    123.24418    298.25297    50.216981    21.262578    41.290603    41.290603    82.581207 
   48100    980.98298   -25015.759   -26030.049   -245.17107    292.54108   -542.50508   -485.54921    41.291265    41.291265     82.58253 
   48200    971.45252   -25015.797   -26020.232    -27.43998    73.093696    -66.43568   -88.977955     41.29137     41.29137     82.58274 
   48300    974.00058   -25015.795   -26022.865    0.6470592     85.32169   -225.63757    142.25705    41.291392    41.291392    82.582784 
   48400    977.84965   -25015.755   -26026.804   -56.201683   -117.83066   -316.76546    265.99107    41.291647    41.291647    82.583294 
   48500    969.39704    -25015.74    -26018.05    109.74169     54.23573   -99.314297    374.30363     41.29159     41.29159    82.583181 
   48600    981.58984   -25015.683     -26030.6   -322.61958    -536.2582   -803.72565    372.12509    41.291617    41.291617    82.583234 
   48700    967.48586   -25015.633   -26015.967    95.151536    110.90052   -202.14457    376.69865    41.291154    41.291154    82.582309 
   48800    985.20469   -25015.564   -26034.219   -345.27584   -285.22129   -309.03586   -441.57038    41.290598    41.290598    82.581195 
   48900     968.5337   -25015.517   -26016.935    137.34017    470.61435   -352.70282    294.10899    41.289626    41.289626    82.579251 
   49000    978.80559   -25015.454   -26027.492    79.311924   -66.832985    14.558967    290.20979    41.289091    41.289091    82.578182 
   49100    974.51714   -25015.389   -26022.993    74.068973    128.23907    127.75488   -33.787025    41.289289    41.289289    82.578577 
   49200    965.07892   -25015.335    -26013.18    301.24953    38.249864    182.07528    683.42344    41.290181    41.290181    82.580362 
   49300    982.97105   -25015.248   -26031.593   -215.88011   -221.53036   -201.34501   -224.76497    41.291668    41.291668    82.583336 
   49400    978.83999   -25015.266    -26027.34   -245.44417   -671.22365   -33.207991   -31.900873    41.292409    41.292409    82.584817 
   49500     970.3565   -25015.246   -26018.548    74.964737    179.95532   -93.198429    138.13732    41.293005    41.293005    82.586009 
   49600    973.83151   -25015.244   -26022.139   -7.8817955    637.40249   -192.84576   -468.20212    41.293214    41.293214    82.586429 
   49700    968.85498   -25015.265   -26017.015    98.184633    30.704689    136.32748    127.52173    41.292861    41.292861    82.585722 
   49800    984.38955   -25015.312   -26033.123   -360.23106   -388.25953   -152.25344    -540.1802    41.291953    41.291953    82.583906 
   49900    978.19367    -25015.39   -26026.795   -27.592528    -137.6922   -386.85894    441.77356    41.290435    41.290435    82.580869 
   50000    963.65473   -25015.476   -26011.849    244.96176    617.08747   -99.326135    217.12396    41.288953    41.288953    82.577906 
Loop time of 1472.99 on 1 procs for 50000 steps with 8000 atoms

Pair  time (%) = 1332.1 (90.4351)
Neigh time (%) = 99.8673 (6.77989)
Comm  time (%) = 8.67169 (0.588713)
Outpt time (%) = 0.622826 (0.0422831)
Other time (%) = 31.7289 (2.15404)

Nlocal:    8000 ave 8000 max 8000 min
Histogram: 1 0 0 0 0 0 0 0 0 0
Nghost:    9102 ave 9102 max 9102 min
Histogram: 1 0 0 0 0 0 0 0 0 0
Neighs:    294494 ave 294494 max 294494 min
Histogram: 1 0 0 0 0 0 0 0 0 0

Total # of neighbors = 294494
Ave neighs/atom = 36.8118
Neighbor list builds = 5000
Dangerous builds = 0
unfix		1

# Melt half the system
region  liquid block INF INF INF INF INF ${nzhalf}
region  liquid block INF INF INF INF INF 10
group	liquid_group region liquid
3981 atoms in group liquid_group

# Heat up one side to Tmelt to make sure it is melted
fix 2 liquid_group npt temp ${Tmelt} ${Tmelt} 1 z 0 0 10 drag 1.0
fix 2 liquid_group npt temp 2000 ${Tmelt} 1 z 0 0 10 drag 1.0
fix 2 liquid_group npt temp 2000 2000 1 z 0 0 10 drag 1.0
run		${eqsteps}
run		50000
Memory usage per processor = 5.95825 Mbytes
Step Temp TotEng PotEng Press Pxx Pyy Pzz Lx Ly Lz 
   50000    963.65473   -25015.476   -26011.849    244.96176    617.08747   -99.326135    217.12396    41.288953    41.288953    82.577906 
   50100    966.71048   -25013.117   -26012.649    354.99551    181.66132    388.65553    494.66968    41.288953    41.288953    82.577967 
   50200    973.36765   -25007.586   -26014.002     276.2801    177.22591    476.66406    174.95032    41.288953    41.288953    82.578223 
   50300    968.79087   -25002.134   -26003.818    550.80567    777.52876    293.58279    581.30547    41.288953    41.288953    82.578682 
   50400    971.63695   -24996.854   -26001.479    719.99565    846.08272    488.81845    825.08577    41.288953    41.288953    82.579417 
   50500    973.49213   -24990.968   -25997.512    921.13189    1329.3102    767.04988    667.03558    41.288953    41.288953    82.580445 
   50600    982.45468   -24984.755   -26000.566       835.24    668.24537    831.14095    1006.3337    41.288953    41.288953    82.581836 
   50700    987.84243     -24978.4   -25999.782    869.43427    870.68973     541.9824    1195.6307    41.288953    41.288953    82.583815 
   50800    990.10814   -24971.824   -25995.548    1009.1925    1275.4024    1035.1618    717.01326    41.288953    41.288953    82.586357 
   50900    988.45533   -24965.244   -25987.259     1207.878    1309.2161    1154.2909     1160.127    41.288953    41.288953    82.589263 
   51000    995.74253   -24958.523   -25988.073    1180.5065    2024.7194    554.14584    962.65415    41.288953    41.288953    82.592629 
   51100    992.25874   -24951.743   -25977.691    1498.8764    2040.0732    1187.3832    1269.1728    41.288953    41.288953    82.596454 
   51200    1002.9927   -24944.958   -25982.004    1412.8748    1987.3339    1392.7829    858.50749    41.288953    41.288953     82.60087 
   51300     1006.962    -24938.11   -25979.261    1471.6055    1953.1905     1090.188    1371.4379    41.288953    41.288953    82.605797 
   51400    1004.0612   -24931.235   -25969.386    1893.6596    2118.9553    1808.8384    1753.1852    41.288953    41.288953    82.611388 
   51500    1010.1713   -24924.324   -25968.792    1725.1816    1665.8564    1686.8366    1822.8518    41.288953    41.288953    82.617769 
   51600    1011.6306   -24917.359   -25963.337    1766.4957    1799.8936    1468.5579    2031.0355    41.288953    41.288953    82.625033 
   51700    1014.1247    -24910.34   -25958.897     1980.885    2459.3496    1738.0682     1745.237    41.288953    41.288953    82.633188 
   51800    1019.0028   -24903.341   -25956.941    1912.3895    1958.7405    1752.9015    2025.5267    41.288953    41.288953    82.642183 
   51900    1014.0587   -24896.249   -25944.737    2230.5172     2405.782     2136.681    2149.0888    41.288953    41.288953    82.652084 
   52000    1025.1385   -24889.154   -25949.098     2142.605    1868.6168     1569.681    2989.5171    41.288953    41.288953    82.662844 
   52100    1023.7554    -24882.02   -25940.534    2184.9313    2580.6211    1814.5039    2159.6691    41.288953    41.288953    82.674781 
   52200    1029.7045   -24874.867   -25939.531     2180.598    2154.3323    2121.5966    2265.8652    41.288953    41.288953    82.687681 
   52300    1029.7514    -24867.71   -25932.423     2329.784    2097.6912    2230.1008    2661.5599    41.288953    41.288953    82.701581 
   52400    1035.2781   -24860.531   -25930.959    2294.2054    2334.6433    2273.6775    2274.2954    41.288953    41.288953    82.716539 
   52500    1038.1489   -24853.299   -25926.695    2368.6801    2205.7125    2500.9207     2399.407    41.288953    41.288953    82.732464 
   52600    1038.5938   -24846.047   -25919.903    2454.8505    2444.2523    2718.4813    2201.8179    41.288953    41.288953    82.749357 
   52700    1040.4058   -24838.731   -25914.461    2449.9987    3082.3497     2427.254    1840.3925    41.288953    41.288953    82.767049 
   52800    1047.0621   -24831.401   -25914.013    2453.7111    2807.7612    2349.4889    2203.8833    41.288953    41.288953    82.785396 
   52900    1063.5546   -24824.048   -25923.713    2016.4139    1736.3087    1938.8749     2374.058    41.288953    41.288953    82.804517 
   53000    1050.9738   -24816.642   -25903.298    2498.6392    2199.0459    3155.6205    2141.2513    41.288953    41.288953    82.824465 
   53100    1058.2299   -24809.252   -25903.411    2258.7951    1874.5683    2440.6792    2461.1376    41.288953    41.288953    82.845121 
   53200    1052.5033   -24801.851   -25890.089    2601.2793    2903.2016    2170.1843    2730.4518    41.288953    41.288953     82.86654 
   53300    1064.0526   -24794.397   -25894.576    2352.1134    2228.7429    2487.3432    2340.2539    41.288953    41.288953    82.888741 
   53400    1063.5599   -24786.936   -25886.606    2456.4618    2620.0454    2476.4323    2272.9076    41.288953    41.288953    82.911669 
   53500    1068.6417   -24779.457   -25884.381    2302.8584    2019.9649    2168.8079    2719.8023    41.288953    41.288953    82.935277 
   53600    1071.4212   -24771.984   -25879.782    2351.5519    2409.2108    2380.8509    2264.5939    41.288953    41.288953    82.959632 
   53700    1084.4112    -24764.39   -25885.619    2007.6433    2173.1338    2208.7155    1641.0807    41.288953    41.288953    82.984559 
   53800    1080.0832   -24756.797   -25873.551    2200.6061    2527.3807    2097.0369    1977.4008    41.288953    41.288953    83.009845 
   53900    1083.5537    -24749.13   -25869.472    2191.4864    2137.2885    2294.0323    2143.1384    41.288953    41.288953    83.035533 
   54000    1086.1921   -24741.505   -25864.576    2128.1142     2454.098    1983.0656    1947.1789    41.288953    41.288953    83.061647 
   54100    1088.8269   -24733.887   -25859.682    2083.3566    2024.6382    2268.7721    1956.6595    41.288953    41.288953    83.088093 
   54200    1084.0946   -24726.209    -25847.11    2157.6993    2455.4402    2611.7929    1405.8648    41.288953    41.288953    83.114883 
   54300    1108.3963   -24718.498   -25864.526    1588.2418    1675.8926    1612.9944    1475.8383    41.288953    41.288953    83.141758 
   54400    1098.3674   -24710.772   -25846.432    1924.4439    2069.1376    1963.5901     1740.604    41.288953    41.288953    83.168708 
   54500    1108.9231    -24703.02   -25849.593     1609.093    2121.4231    1323.1587    1382.6973    41.288953    41.288953    83.195728 
   54600     1107.641   -24695.232    -25840.48    1742.0845    2342.7847    1705.6147    1177.8542    41.288953    41.288953    83.222819 
   54700     1110.337   -24687.388   -25835.423    1793.3657    2093.2536    1732.7083    1554.1354    41.288953    41.288953    83.249841 
[...]
  336300    1032.9121   -24860.425   -25928.407    529.71148   -67.147125    1050.1085    606.17311    41.367011    41.367011     82.63945 
  336400    1035.7457   -24860.436   -25931.347    500.04829    869.31898    521.85101    108.97487    41.367546    41.367546    82.650944 
  336500    1030.2242   -24860.442   -25925.644    194.06877    120.18631    364.94102    97.078995    41.368202    41.368202    82.695603 
  336600    1026.8945   -24860.438   -25922.197   -17.670913    74.969439    281.57345   -409.55563    41.368808    41.368808    82.735108 
  336700    1035.0408   -24860.444   -25930.627   -326.43852    201.28887   -301.37838   -879.22606    41.369316    41.369316    82.723929 
  336800    1045.7348   -24860.475   -25941.714    116.98264    505.46928   -436.01522    281.49385    41.369641    41.369641    82.655658 
  336900    1041.7725   -24860.453   -25937.596    367.07288    411.22926    193.54775    496.44164    41.370021    41.370021    82.605044 
  337000    1040.7176    -24860.46   -25936.512    316.41371    326.68926    1.4388103    621.11306    41.370596    41.370596    82.618363 
  337100      1028.31   -24860.504   -25923.727    89.561182   -625.27761   -93.723286    987.68444    41.371239    41.371239    82.680831 
  337200    1032.2763   -24860.497   -25927.821    -684.4732   -835.93544   -1228.6287    11.144507    41.371646    41.371646    82.777306 
  337300    1045.9952   -24860.481    -25941.99   -1505.7697   -1510.9852   -1657.6764   -1348.6475    41.371531    41.371531    82.831769 
  337400    1040.8041   -24860.535   -25936.677   -897.73547   -1178.0048   -737.36568   -777.83593    41.370849    41.370849    82.790973 
  337500    1027.4662   -24860.538   -25922.888    58.281731   -549.21483    266.46859    457.59143     41.36987     41.36987    82.687979 
  337600    1040.6121    -24860.52   -25936.462    353.66704    220.75003    165.57842    674.67266    41.368938    41.368938    82.621106 
  337700     1039.736   -24860.519   -25935.556    554.21868    916.07614    179.62685    566.95306    41.368285    41.368285    82.612389 
  337800    1032.4164    -24860.52   -25927.989    369.99828     516.3554    346.44619    247.19326    41.368009    41.368009    82.651059 
  337900    1042.4824   -24860.531   -25938.407   -225.73889    331.34168   -773.03649   -235.52185    41.367936    41.367936    82.695744 
  338000    1042.4354   -24860.526   -25938.354   -335.70586   -474.04153   -481.19775   -51.878311    41.367869    41.367869    82.714419 
  338100    1039.3634   -24860.527   -25935.179   -197.85296    188.35397   -403.54207   -378.37077    41.367762    41.367762    82.712025 
  338200    1038.3704   -24860.524   -25934.149    10.813955     72.74003   -45.771926    5.4737609     41.36762     41.36762    82.684496 
  338300    1035.1148   -24860.527   -25930.786    454.11763    665.01866    41.546064    655.78817    41.367539    41.367539    82.656083 
  338400    1048.5614   -24860.529   -25944.691   -138.69651    62.803371   -82.502249   -396.39064    41.367595    41.367595    82.672375 
  338500    1044.0523   -24860.527   -25940.027   -312.31513   -372.11087   -191.78611    -373.0484    41.367713    41.367713    82.697141 
  338600    1027.1194   -24860.523   -25922.515    246.11293    399.83963    -148.6824    487.18154    41.367797    41.367797    82.699829 
  338700      1028.41   -24860.518   -25923.845    214.21516    464.23428   -294.27648    472.68768    41.367868    41.367868    82.700366 
  338800    1035.1085   -24860.529   -25930.782   -180.65481    -282.5649   -757.01203    497.61251    41.367848    41.367848    82.712526 
  338900    1041.4846    -24860.53   -25937.375   -632.27948   -646.98703   -599.93973    -649.9117    41.367642    41.367642    82.748304 
  339000    1045.3067    -24860.55   -25941.347   -331.41433   -641.20015   -40.051942   -312.99089    41.367286    41.367286    82.726787 
  339100    1033.9024   -24860.541   -25929.546    189.16901    604.99643      184.041    -221.5304    41.366886    41.366886    82.676374 
  339200    1046.0371   -24860.538    -25942.09    342.15089    61.851739    162.72686    801.87407    41.366679    41.366679     82.64223 
  339300    1034.0912    -24860.54   -25929.741    403.20772    203.11747    158.37864    848.12704    41.366694    41.366694    82.653083 
  339400     1041.626   -24860.535   -25937.526   -200.23382   -258.50012    596.71397   -938.91533    41.366832    41.366832    82.696792 
  339500    1032.9726   -24860.548   -25928.592    156.81111   -134.80258   -249.69291    854.92881    41.366959    41.366959     82.70565 
  339600    1034.4605   -24860.551   -25930.134   -269.51989   -127.49081   -302.94166   -378.12719    41.366947    41.366947    82.752965 
  339700    1056.2869   -24860.547   -25952.697   -1099.2989    -1240.406    -1346.845    -710.6458    41.366787    41.366787    82.784078 
  339800    1033.1278   -24860.553   -25928.758   -384.45641   -515.14842   -613.33245   -24.888355    41.366181    41.366181    82.769123 
  339900    1041.2055   -24860.555   -25937.111   -265.70034   -569.86083   -678.69631    451.45613      41.3654      41.3654    82.735711 
  340000    1032.1359   -24860.554   -25927.733   -87.314145   -116.47837    166.46375   -311.92781    41.364507    41.364507    82.734564 
  340100    1032.0118   -24860.553   -25927.604    20.227737   -226.85747    54.949139    232.59155    41.363663    41.363663    82.730298 
  340200    1040.7039   -24860.555   -25936.593   -58.758215   -156.14177    109.36444   -129.49731    41.362909    41.362909    82.714529 
  340300     1049.451   -24860.561   -25945.643   -269.13735    297.64464   -312.91836   -792.13834    41.362325    41.362325    82.696994 
  340400    1046.9021   -24860.569   -25943.015    99.215617    451.49596    178.09352   -331.94264    41.361956    41.361956    82.660334 
  340500    1038.7272   -24860.562   -25934.556    653.65871    366.22716    519.18082    1075.5682    41.361853    41.361853    82.633962 
  340600    1032.8049   -24860.619    -25928.49    104.21707    162.33063    316.56283   -166.24223    41.361961    41.361961    82.706615 
  340700    1039.2475   -24860.582   -25935.114   -629.65439   -534.35005   -352.50612    -1002.107    41.362064    41.362064    82.778364 
  340800    1033.0794   -24860.588   -25928.743   -309.44029   -359.29222   -245.68571   -323.34293     41.36192     41.36192    82.759817 
  340900    1025.6816   -24860.607   -25921.112     342.6655    509.91481    191.56276    326.51894    41.361605    41.361605    82.691326 
  341000    1042.1545   -24860.589   -25938.126    470.44598    310.10882    802.48675    298.74238    41.361475    41.361475    82.646653 
  341100    1039.1649   -24860.595   -25935.041    485.93381    102.52851    728.53846    626.73446    41.361625    41.361625    82.650465 
  341200    1040.3931   -24860.608   -25936.325    -175.9435    195.55814   -668.67883   -54.709804    41.361877    41.361877    82.708838 
  341300    1042.4163   -24860.618   -25938.426   -496.18525   -496.60676   -578.69408   -413.25491    41.362066    41.362066    82.767206 
  341400     1028.673   -24860.598   -25924.197   -349.89014    146.23642   -946.09216   -249.81469    41.362017    41.362017    82.795189 
  341500    1034.8597   -24860.618   -25930.613    -375.7234   -671.16388   -42.423451   -413.58287    41.361664    41.361664     82.77252 
  341600    1037.3034   -24860.621   -25933.143     107.0342    23.083797    198.87939    99.139425    41.361142    41.361142    82.718795 
  341700    1040.0471   -24860.616   -25935.975    476.28177    366.59239    909.83332     152.4196    41.360722    41.360722    82.677972 
  341800    1032.5245   -24860.617   -25928.198    512.05469    451.00518    117.71626    967.44264    41.360566    41.360566    82.668904 
  341900    1040.2781   -24860.612    -25936.21    70.535093    234.25411    375.99561   -398.64445    41.360585    41.360585    82.707304 
  342000    1032.7868   -24860.613   -25928.465    296.26236    395.85789    144.93381    347.99539     41.36075     41.36075    82.703914 
  342100    1047.3219   -24860.617   -25943.497   -259.48602    9.3067761   -333.10089   -454.66395    41.361029    41.361029    82.727875 
  342200    1040.5483   -24860.624   -25936.501   -317.00972   -687.93496   -265.26327    2.1690901    41.361221    41.361221    82.749875 
  342300    1030.5975   -24860.612     -25926.2   -274.93756    44.457317   -32.867228   -836.40276    41.361216    41.361216    82.770561 
  342400    1041.5554   -24860.625   -25937.543   -237.97949   -119.66335   -389.48844   -204.78668    41.361151    41.361151    82.740601 
  342500    1041.3392   -24860.627   -25937.321    120.88086    233.36127    166.22558   -36.944285    41.360984    41.360984     82.69376 
  342600    1041.7088    -24860.62   -25937.697    409.03256   -38.685265    533.54146    732.24149      41.3609      41.3609    82.666675 
  342700    1037.4391   -24860.625   -25933.287    185.04957    77.975966    124.16791    353.00483    41.361024    41.361024    82.691079 
  342800    1039.7601   -24860.631   -25935.693   -199.38837     440.2067   -418.21606   -620.15577    41.361243    41.361243    82.720722 
  342900    1043.7164   -24860.629   -25939.782   -336.67704   -82.343488   -431.42512   -496.26252    41.361471    41.361471    82.739166 
  343000    1036.0976   -24860.625     -25931.9   -88.636768   -443.11083   -198.14477    375.34529    41.361592    41.361592    82.733415 
  343100    1032.9885   -24860.622   -25928.683   -132.03116    -438.2328   -487.13049    529.26982    41.361583    41.361583    82.736198 
  343200     1027.696   -24860.632   -25923.221   -95.783403    152.73628   -501.86746    61.780978    41.361403    41.361403    82.769656 
  343300    1040.0384   -24860.627   -25935.976    -552.3653   -311.48808    -991.0671   -354.54072    41.361078    41.361078    82.786448 
  343400    1046.2027   -24860.634   -25942.357   -647.92432   -488.26019   -742.74101   -712.77176    41.360525    41.360525    82.774774 
  343500    1040.3199   -24860.674   -25936.315    6.0299538    361.10775    406.90505   -749.92294    41.359856    41.359856    82.724766 
  343600    1052.1923   -24860.666   -25948.582    177.82594   -207.67138    232.81521    508.33401    41.359383    41.359383    82.645841 
  343700    1043.4097   -24860.659   -25939.495    510.94613    734.75477    345.83151    452.25211    41.359158    41.359158    82.652922 
  343800    1029.7728   -24860.659   -25925.394    283.33141   -212.50258    811.09267    251.40415    41.359171    41.359171    82.715354 
  343900    1033.9564   -24860.658   -25929.719   -245.46597    13.633595   -398.52569   -351.50582    41.359222    41.359222     82.75826 
  344000     1032.602   -24860.655   -25928.316   -301.62822   -257.44317   -64.797075   -582.64441    41.359199    41.359199    82.774666 
  344100    1035.3364   -24860.657   -25931.145   -341.07502   -132.67171   -815.32989   -75.223456    41.358993    41.358993     82.77199 
  344200    1026.8095   -24860.665   -25922.337    122.49881   -178.48185    208.11924    337.85904    41.358662    41.358662    82.748566 
  344300    1021.2797   -24860.661   -25916.615     614.1241    622.31264    497.46234    722.59733    41.358371    41.358371    82.703916 
  344400     1041.981   -24860.661   -25938.019    79.750252    413.69105   -212.58184    38.141542    41.358213    41.358213    82.700209 
  344500    1041.2339   -24860.659   -25937.245   -106.12654   -318.50922    18.332172   -18.202565    41.358119    41.358119    82.719185 
  344600    1050.2762   -24860.671   -25946.606   -600.76135   -1026.3923   -124.92268   -650.96909    41.357989    41.357989    82.757369 
  344700    1037.1235   -24860.665   -25933.001   -277.38425   -152.22677   -558.74737   -121.17862    41.357726    41.357726    82.774526 
  344800    1031.3834   -24860.668   -25927.069   -41.940272   -463.44121    102.77813    234.84227    41.357399    41.357399    82.750485 
  344900    1040.8776   -24860.663    -25936.88   -174.31702   -990.40971    428.28442    39.174244    41.357047    41.357047    82.731961 
  345000    1043.8707   -24860.674   -25939.986   -226.14399   -298.83544   -457.03089     77.43437    41.356698    41.356698    82.737685 
  345100    1036.6617   -24860.669   -25932.527   -150.25478   -192.10226   -205.10404    -53.55803    41.356367    41.356367    82.762118 
  345200    1042.3222   -24860.668   -25938.379   -449.09854   -804.37282    85.658793    -628.5816    41.355982    41.355982    82.780628 
  345300    1047.7402   -24860.676   -25943.989   -287.88193   -806.29216    27.852255    -85.20588    41.355592    41.355592    82.756919 
  345400    1042.0329   -24860.675   -25938.086    154.60586    -472.8128    677.67038    258.96001    41.355201    41.355201    82.733003 
  345500    1038.4585    -24860.68   -25934.396    -164.5907    -197.6477    101.46522   -397.58962    41.354861    41.354861    82.754109 
  345600    1054.5801   -24860.683   -25951.068   -608.43402   -98.288005    -576.4882   -1150.5259    41.354499    41.354499     82.78515 
  345700    1046.1934   -24860.682   -25942.395    -432.2413   -670.29985   -741.15155    114.72751    41.354101    41.354101    82.770405 
  345800    1034.6185   -24860.679   -25930.425    -56.71278    143.33342   -651.82191    338.35015    41.353581    41.353581    82.766007 
  345900    1038.0765    -24860.68   -25934.001   -237.42417    -469.0935    159.19237   -402.37139    41.353064    41.353064    82.788066 
  346000    1033.3315   -24860.678   -25929.093   -139.28323    28.570083   -264.21943   -182.20035    41.352529    41.352529    82.795642 
  346100    1034.9305   -24860.683   -25930.752   -119.06883    246.11027   -68.085121   -535.23162    41.351931    41.351931    82.779051 
  346200     1035.379   -24860.687   -25931.219    358.13432    750.41771   -156.81604    480.80129    41.351365    41.351365    82.732135 
  346300     1034.506    -24860.68    -25930.31    462.56591   -57.108991    328.22608    1116.5806     41.35099     41.35099     82.71762 
  346400    1037.6421   -24860.706   -25933.578   -7.8903052   -58.309144   -260.40669    295.04491    41.350726    41.350726    82.762053 
  346500    1035.7836   -24860.699   -25931.649   -357.47312   -243.28843   -413.50337   -415.62756    41.350428    41.350428    82.820383 
  346600    1043.6446   -24860.697   -25939.775   -604.64747   -738.68868   -463.98537   -611.26836    41.350018    41.350018    82.828931 
  346700    1032.6657   -24860.696   -25928.422    -116.7402   -367.09532   -109.57261    126.44734    41.349392    41.349392    82.800942 
  346800     1044.996   -24860.699   -25941.175   -341.40794   -136.50938   -307.99772   -579.71672    41.348678    41.348678     82.78542 
  346900    1041.8063   -24860.694   -25937.872   -39.245038   -199.03245   -351.28507     432.5824    41.347999    41.347999    82.759972 
  347000    1033.1722   -24860.697   -25928.947    122.64567   -130.70535    305.96263    192.67973    41.347355    41.347355    82.772224 
  347100    1035.0955   -24860.699   -25930.938   -52.825296    389.97393    6.6410025   -555.09082    41.346849    41.346849    82.777882 
  347200    1031.0576   -24860.717   -25926.781    504.67129    949.38015    631.71983   -67.086111    41.346544    41.346544    82.735396 
  347300     1044.259   -24860.719   -25940.432    609.38627    835.95749    453.42535    538.77598    41.346598    41.346598    82.675451 
  347400    1044.8599    -24860.71   -25941.045    709.20695    764.48211    1104.0209    259.11788    41.347021    41.347021    82.667405 
  347500     1030.501   -24860.758   -25926.247    552.00112    39.969653    1077.4079    538.62581    41.347766    41.347766    82.715226 
  347600      1041.25   -24860.749   -25937.352   -337.59601   -366.56445    71.287819   -717.51139    41.348677    41.348677     82.80435 
  347700    1039.4656   -24860.734   -25935.492   -558.31497   -603.47775   -795.32157   -276.14559    41.349415    41.349415    82.843641 
  347800    1039.4129   -24860.743   -25935.446   -496.31674   -549.95595   -512.43957    -426.5547    41.349807    41.349807    82.829519 
  347900    1041.9386   -24860.752   -25938.066   -92.024719   -27.424142   -321.34806    72.698047    41.349939    41.349939    82.776538 
  348000    1026.7882   -24860.733   -25922.383    508.65461    574.57775    614.45879    336.92728    41.350022    41.350022    82.732956 
  348100    1046.6904   -24860.737   -25942.965    54.973057    12.862412    381.19926    -229.1425    41.350243    41.350243    82.721262 
  348200    1037.3411   -24860.745   -25933.306    239.00943    102.38491    319.94148    294.70191    41.350568    41.350568    82.731318 
  348300    1045.6924   -24860.748   -25941.944   -236.90667   -506.28418    98.371725   -302.80755    41.350947    41.350947    82.763281 
  348400    1041.3267   -24860.744   -25937.425   -321.57556   -542.24858    69.041138   -491.51923    41.351213    41.351213    82.778002 
  348500     1039.577   -24860.739   -25935.612   -179.07026   -540.38111    153.63871   -150.46838    41.351413    41.351413    82.766052 
  348600    1034.1253   -24860.742   -25929.978     -20.5131   -199.69949    29.006401    109.15379    41.351533    41.351533    82.757129 
  348700    1037.6007   -24860.744   -25933.573   -143.86717   -182.14344   -80.992922   -168.46515    41.351636    41.351636    82.765089 
  348800    1043.9473   -24860.739    -25940.13   -214.53952   -603.76179    114.36424   -154.22101    41.351731    41.351731    82.771064 
  348900    1020.3287   -24860.743   -25915.713    383.42107    475.46637     601.7736    73.023226    41.351776    41.351776    82.754496 
  349000    1046.3772   -24860.753   -25942.657    130.21448   -393.58447    587.62788    196.60004    41.351921    41.351921    82.714332 
  349100    1031.6293   -24860.744   -25927.399    808.57296    596.37401    1441.0404    388.30443    41.352156    41.352156    82.694399 
  349200    1049.0076   -24860.759   -25945.382   -44.861604    107.00361    1.3469235   -242.93534    41.352637    41.352637    82.707804 
  349300    1039.9076   -24860.751   -25935.965    166.01113   -474.55722    547.47045    425.12015    41.353261    41.353261    82.730361 
  349400    1040.8376   -24860.749   -25936.925   -136.68468    360.55452   -168.70756     -601.901    41.353912    41.353912    82.754342 
  349500    1035.8201   -24860.748   -25931.737   -196.69311   -584.94293     147.0757   -152.21211    41.354502    41.354502    82.756382 
  349600    1035.8231   -24860.744   -25931.735   -110.94726     169.3924   -138.38799   -363.84619    41.354935    41.354935    82.756988 
  349700    1030.7296   -24860.764   -25926.489     402.3324    896.58677    128.10845    182.30198    41.355371    41.355371    82.713169 
  349800    1040.4435   -24860.757   -25936.525    291.65454    198.09564    206.06699    470.80098    41.355932    41.355932    82.679487 
  349900    1042.6581   -24860.777   -25938.835    244.41714     638.5157   -426.20807    520.94379    41.356575    41.356575    82.699748 
  350000    1037.9302   -24860.799   -25933.969   -203.14428   -215.67772   -477.72751    83.972376    41.357229    41.357229    82.762832 
Loop time of 5804.08 on 1 procs for 200000 steps with 8000 atoms

Pair  time (%) = 5254.11 (90.5244)
Neigh time (%) = 395.39 (6.81227)
Comm  time (%) = 32.1029 (0.553109)
Outpt time (%) = 2.45581 (0.0423118)
Other time (%) = 120.024 (2.06793)

Nlocal:    8000 ave 8000 max 8000 min
Histogram: 1 0 0 0 0 0 0 0 0 0
Nghost:    8547 ave 8547 max 8547 min
Histogram: 1 0 0 0 0 0 0 0 0 0
Neighs:    292329 ave 292329 max 292329 min
Histogram: 1 0 0 0 0 0 0 0 0 0

Total # of neighbors = 292329
Ave neighs/atom = 36.5411
Neighbor list builds = 20000
Dangerous builds = 0
unfix		4
