LAMMPS (13 Jan 2014)
dimension       3
boundary        p p p
units           metal

atom_style	atomic
neighbor	0.3 bin
neigh_modify	every 10 delay 0 check no

# Number of steps for the equilibration steps
variable        eqsteps equal 50000

# Number of steps to run our NPH simulation
variable        simsteps equal 200000

# Our trial melting temperature
variable	T equal 775.0
variable	T2 equal 2*${T}
variable	T2 equal 2*775

# Some high temperature to melt the crystal
variable	Tmelt equal 2000.0

#System size
variable	nx equal 10
variable	ny equal 10
variable	nz equal 20
variable	nzhalf equal ${nz}*0.5
variable	nzhalf equal 20*0.5
variable	a equal 4.050
variable	length equal ${nz}*${a}
variable	length equal 20*${a}
variable	length equal 20*4.05

lattice		fcc ${a}
lattice		fcc 4.05
Lattice spacing in x,y,z = 4.05 4.05 4.05

region         box block 0 ${nx} 0 ${ny} 0 ${nz}
region         box block 0 10 0 ${ny} 0 ${nz}
region         box block 0 10 0 10 0 ${nz}
region         box block 0 10 0 10 0 20
create_box     1 box
Created orthogonal box = (0 0 0) to (40.5 40.5 81)
  1 by 1 by 1 MPI processor grid
create_atoms   1 box
Created 8000 atoms

mass		1 26.9815

pair_style	eam/alloy
pair_coeff	* * Al_potential.alloy Al

velocity	all create ${T2} 1337
velocity	all create 1550 1337

# Create a dump file. This can be visualized with
# e.g. OVITO (http://www.ovito.org/)
dump		id all atom 1000 atomsdump

# 1 fs timestep
timestep	0.001
thermo_style	custom step temp etotal pe press pxx pyy pzz lx ly lz

# output every 100th timestep
thermo		100

# Equilibration the whole system to the trial melting temperature
fix		1 all npt temp ${T} ${T} 1 iso 0 0 3 drag 1.0
fix		1 all npt temp 775 ${T} 1 iso 0 0 3 drag 1.0
fix		1 all npt temp 775 775 1 iso 0 0 3 drag 1.0
run		${eqsteps}
run		50000
Memory usage per processor = 5.95314 Mbytes
Step Temp TotEng PotEng Press Pxx Pyy Pzz Lx Ly Lz 
       0         1550   -25574.626   -27177.252    8820.4205     8703.334    8691.2222    9066.7053         40.5         40.5           81 
     100    753.39296   -25589.851   -26368.823    23103.174    23356.307    23084.106    22869.109    40.587051    40.587051    81.174101 
     200    724.62006   -25610.503   -26359.725    12436.528    12910.148    12401.879    11997.557    40.789763    40.789763    81.579526 
     300    737.53325   -25617.535   -26380.109    3577.3684    3508.2808    3477.5677    3746.2568    40.950654    40.950654    81.901308 
     400    724.00148   -25616.764   -26365.346   -910.30022   -1288.0969   -356.35896   -1086.4448    41.047945    41.047945     82.09589 
     500    714.92409   -25613.796   -26352.993   -3316.5322   -3174.8626   -3144.0661    -3630.668    41.102281    41.102281    82.204561 
     600    714.45096   -25610.633   -26349.341   -4081.4957   -4019.0664   -4086.4971   -4138.9235    41.120213    41.120213    82.240427 
     700    711.64118    -25607.95   -26343.753   -3313.4376   -3189.1959   -3492.3487   -3258.7681    41.107981    41.107981    82.215962 
     800    731.11235    -25605.49   -26361.425   -2104.5413   -2094.1893    -2281.563   -1937.8717    41.076442    41.076442    82.152884 
     900    726.49296   -25602.965   -26354.123   -53.354703   -143.18633   -34.236064    17.358288    41.038626    41.038626    82.077252 
    1000    735.83275   -25600.299   -26361.114    1305.3367    1556.5257    1278.9562    1080.5282    41.008013    41.008013    82.016027 
    1100    742.89312   -25597.746   -26365.862    2006.8641    1837.4206    2129.1173    2054.0545    40.992835    40.992835     81.98567 
    1200    735.87902   -25595.524   -26356.387    2110.2791    2196.3541    2474.0043     1660.479    40.994772    40.994772    81.989544 
    1300    723.09067   -25593.564   -26341.205    1692.4471    1525.4112    1959.6244    1592.3058    41.009936    41.009936    82.019872 
    1400    734.83319   -25591.531   -26351.313    438.27026    816.65624    225.88884    272.26571    41.032448    41.032448    82.064896 
    1500    739.73837   -25589.332   -26354.186   -742.96221    -588.4977   -869.99356   -770.39538    41.054338    41.054338    82.108675 
    1600    724.99953   -25586.975    -26336.59   -900.04391   -1074.4741   -787.39365   -838.26399    41.069455    41.069455     82.13891 
    1700    728.26266   -25584.641   -26337.629   -1208.7002   -1382.8356   -1053.0805   -1190.1845     41.07431     41.07431    82.148619 
    1800    734.34515    -25582.37   -26341.648   -1060.6714   -1512.3499   -610.81351   -1058.8507    41.069536    41.069536    82.139072 
    1900    737.47111   -25580.135   -26342.645   -596.88973   -563.81513    -891.3518   -335.50226    41.058195    41.058195    82.116389 
    2000    734.06482   -25577.908   -26336.896    269.99917    460.34204    41.971238    307.68424    41.044742    41.044742    82.089484 
    2100    739.93022   -25575.689   -26340.741    700.39717    591.15888     722.3633    787.66933    41.034048    41.034048    82.068097 
    2200     740.2472   -25573.537   -26338.917    958.68109    1013.8149    897.21049    965.01786    41.029202    41.029202    82.058403 
    2300    741.91535     -25571.5   -26338.605    842.11147    607.88078     1312.778    605.67562    41.031249    41.031249    82.062498 
    2400    742.77296   -25569.502   -26337.493    588.57567    538.12761    533.17601    694.42341    41.039217    41.039217    82.078433 
    2500    752.45086    -25567.56   -26345.558   -136.06032   -153.92529   -80.819235   -173.43643    41.049857    41.049857    82.099714 
    2600    749.30616   -25565.597   -26340.344   -522.67587   -441.36521   -353.97549   -772.68691    41.059922    41.059922    82.119845 
    2700    741.25704   -25563.649   -26330.073   -563.76716   -581.72727   -448.50602    -661.0682    41.066586    41.066586    82.133171 
    2800    754.09938   -25561.683   -26341.386   -915.24686   -875.10213   -829.10812   -1041.5303    41.068709    41.068709    82.137419 
    2900    738.29988   -25559.788   -26323.154   -365.44385   -601.01905    75.055148   -570.36763    41.065593    41.065593    82.131186 
    3000    761.89661   -25557.853   -26345.617   -555.80742   -398.43744   -858.46817   -410.51664    41.059819    41.059819    82.119638 
    3100    741.78018   -25555.977   -26322.942    351.29258    574.09601    252.19596    227.58576    41.052963    41.052963    82.105926 
    3200    741.51458   -25554.131   -26320.821    715.64408    788.58083    643.29523    715.05618     41.04826     41.04826     82.09652 
    3300    750.41478   -25552.333   -26328.225    593.41736    967.77654    433.23198    379.24358    41.047186    41.047186    82.094372 
    3400    748.55699   -25550.608    -26324.58    494.25045    955.71394    282.11197    244.92545    41.049962    41.049962    82.099923 
    3500    752.64818    -25548.93   -26327.132    235.96434    461.89862    1.7777813    244.21662    41.055464    41.055464    82.110928 
    3600    749.55065   -25547.289   -26322.289   -8.2351505    151.58256   -68.551845   -107.73616    41.062042    41.062042    82.124085 
    3700    757.37674   -25545.635   -26328.727   -458.21793    -490.3826   -609.62186   -274.64932    41.067733    41.067733    82.135466 
    3800    750.80297   -25543.982   -26320.276   -404.84354     36.16243   -612.04095    -638.6521    41.070938    41.070938    82.141876 
    3900    755.90179   -25542.311   -26323.878   -429.90688   -210.27415   -501.94338    -577.5031    41.071216    41.071216    82.142431 
    4000    756.69912   -25540.735   -26323.125   -279.59429   -95.232137   -327.58045   -415.97028    41.068157    41.068157    82.136314 
    4100    749.46191   -25539.169   -26314.077     207.6827   -28.622518    353.63406    298.03656    41.063788    41.063788    82.127576 
    4200    756.17278   -25537.609   -26319.455    191.74194    282.06302    152.56192    140.60089    41.060282    41.060282    82.120564 
    4300    763.99303   -25536.105   -26326.038    225.25859    81.708221    403.68705    190.38049    41.058338    41.058338    82.116676 
    4400    763.32369   -25534.693   -26323.933    156.40063    -248.1681    308.30788    409.06212    41.058741    41.058741    82.117482 
    4500    758.14616    -25533.27   -26317.157    278.76703   -88.340777    605.92553    318.71635    41.061585    41.061585    82.123171 
    4600    759.74419   -25531.921    -26317.46    100.29734   -131.23801    342.05492    90.075117    41.065664    41.065664    82.131328 
    4700    757.71515   -25530.604   -26314.045   -32.966207    161.16162    36.474407   -296.53465     41.06992     41.06992    82.139839 
    4800    750.94642   -25529.306   -26305.748   -41.445066   -53.974381    104.32523   -174.68605    41.073223    41.073223    82.146446 
    4900    753.49597   -25528.031   -26307.109   -85.532262   -357.37915   -207.40267    308.18503    41.074608    41.074608    82.149216 
    5000    756.28793   -25526.752   -26308.717   -84.550676   -109.36126   -50.436766   -93.854003    41.074145    41.074145    82.148289 
    5100    763.52476    -25525.51   -26314.958   -127.19285   -84.457663   -193.59545   -103.52543    41.072096    41.072096    82.144192 
    5200    760.15614   -25524.277   -26310.242    63.452387    471.55242   -388.43537    107.24011    41.069519    41.069519    82.139037 
    5300    750.46103   -25523.083   -26299.023    488.33154    467.12102    626.74309     371.1305    41.067261    41.067261    82.134522 
    5400    763.04527   -25521.902   -26310.854    300.26921    149.88149    337.48054    413.44561    41.066611    41.066611    82.133222 
    5500    765.09716   -25520.758   -26311.832    71.612649    77.961891    48.481797    88.394257    41.067805    41.067805     82.13561 
    5600    764.11114   -25519.647   -26309.702    20.483054    -14.24723   -131.61744    207.31383    41.070013    41.070013    82.140027 
    5700    763.19334   -25518.594   -26307.699    4.2555195   -196.05353    262.03319     -53.2131    41.072391    41.072391    82.144781 
    5800    764.30248   -25517.546   -26307.798   -38.132883   -73.862588    95.575491   -136.11155     41.07465     41.07465    82.149299 
    5900    772.50421   -25516.507   -26315.239   -367.60138   -419.66457    -433.7596   -249.37996    41.076463    41.076463    82.152926 
    6000     765.0107   -25515.511   -26306.495    -151.8546    96.639928   -98.850388   -453.35334    41.076832    41.076832    82.153665 
    6100    774.41365   -25514.522   -26315.228   -285.92487   -156.58746   -424.46344   -276.72371    41.076309    41.076309    82.152618 
    6200    765.59976   -25513.549   -26305.143     15.26331   -249.54239    34.154633    261.17769    41.075221    41.075221    82.150442 
    6300     769.1572   -25512.605   -26307.877    69.911359   -30.223249    164.79614    75.161185    41.074094    41.074094    82.148188 
    6400    763.48336   -25511.699   -26301.104    252.85751    534.94198    52.576808    171.05375    41.073462    41.073462    82.146923 
    6500    767.58236   -25510.772   -26304.415    166.28901    559.51646   -75.376913    14.727477    41.074057    41.074057    82.148114 
    6600    764.35597   -25509.892   -26300.199    150.17299    46.461872     269.2661    134.79099    41.075308    41.075308    82.150616 
    6700    763.45613    -25509.04   -26298.417    56.232029   -74.754614    89.257594    154.19311    41.076946    41.076946    82.153892 
    6800    766.83804   -25508.213   -26301.086   -18.228089    163.57632   -427.04085    208.78026     41.07837     41.07837    82.156741 
    6900    770.99374   -25507.416   -26304.586   -126.85473   -81.206891   -166.09277   -133.26452    41.079264    41.079264    82.158528 
    7000    772.07486   -25506.652    -26304.94    -213.9873    -618.8266    120.79315   -143.92845    41.079357    41.079357    82.158715 
    7100    766.69754   -25505.896   -26298.624     7.301213    104.21741   -162.97866    80.664885    41.078774    41.078774    82.157547 
    7200    770.42914   -25505.144    -26301.73    49.671025    391.19264   -97.651057   -144.52851    41.078288    41.078288    82.156576 
    7300     775.4937   -25504.412   -26306.235   -118.05627    382.58432   -488.61818   -248.13495    41.078045    41.078045     82.15609 
    7400    772.83662   -25503.721   -26302.797    64.566351    182.22488    119.75889   -108.28472    41.077846    41.077846    82.155693 
    7500    773.30645   -25503.053   -26302.614    4.0616981    230.52975   -288.14219     69.79754    41.078284    41.078284    82.156569 
    7600    762.77632    -25502.46   -26291.134    286.15714    422.76841   -134.77475    570.47778     41.07884     41.07884     82.15768 
    7700    784.06088   -25501.876   -26312.557   -223.71098   -232.49141   -226.60392   -212.03762    41.079809    41.079809    82.159618 
    7800    762.50842    -25501.37   -26289.767     145.8082    504.31121    209.85698    -276.7436    41.080434    41.080434    82.160867 
    7900    766.48141   -25500.807   -26293.312     40.63024     33.82939    409.18963   -321.12829    41.081523    41.081523    82.163047 
    8000    771.81725   -25500.232   -26298.254    -139.1637   -231.78558   -11.857051   -173.84847      41.0824      41.0824    82.164799 
    8100    775.41279   -25499.671    -26301.41   -180.02157   -402.21793   -47.385938   -90.460851    41.082554    41.082554    82.165108 
    8200    772.41034   -25499.181   -26297.816   -48.215395    178.75805    138.11066    -461.5149    41.081472    41.081472    82.162944 
    8300    769.89799   -25498.689   -26294.726    78.588158     127.9898    3.4815544    104.29312    41.080383    41.080383    82.160766 
    8400    774.71296   -25498.207   -26299.223    58.719571    17.904634    199.29215   -41.038073    41.079961    41.079961    82.159921 
    8500     773.9568   -25497.768   -26298.002    91.630654    267.95899    375.47312   -368.54015    41.080123    41.080123    82.160245 
    8600    771.82153   -25497.364   -26295.391    67.139619     198.6818    153.11292   -150.37586    41.080888    41.080888    82.161775 
    8700    763.99543   -25496.989   -26286.924    277.89737    283.25658    110.71997    439.71557    41.081779    41.081779    82.163558 
    8800    775.59535   -25496.642    -26298.57   -90.071248    47.303002    76.983271   -394.50002    41.082764    41.082764    82.165529 
    8900    770.77923   -25496.286   -26293.235   -40.249876   -83.227736    123.90862   -161.43051    41.083571    41.083571    82.167141 
    9000    778.05623   -25495.968    -26300.44   -157.37185    245.83519   -457.74968   -260.20106    41.083696    41.083696    82.167393 
    9100    770.12385   -25495.665   -26291.936   -14.877237    481.44854   -424.37778   -101.70246    41.083443    41.083443    82.166886 
    9200    764.70285   -25495.374    -26286.04     258.4047    391.17988    218.48935    165.54488    41.083072    41.083072    82.166145 
    9300     774.1849   -25495.102   -26295.572    30.882243    293.31074    274.56912   -475.23313    41.082773    41.082773    82.165547 
    9400    778.71033     -25494.9   -26300.049   -36.323677     134.0053    68.792025   -311.76835    41.082142    41.082142    82.164284 
    9500    769.15712   -25494.732   -26290.004    196.83432    138.51939   -26.627494    478.61108    41.081615    41.081615    82.163229 
    9600    766.71992   -25494.568   -26287.319     138.9897    260.83429     718.3181    -562.1833    41.081571    41.081571    82.163142 
    9700    768.17812   -25494.399   -26288.658     179.0847    108.78873    429.53141   -1.0660327    41.081825    41.081825    82.163651 
    9800    780.58374   -25494.231   -26301.317   -46.008017   -295.27718    315.87481   -158.62168    41.082652    41.082652    82.165304 
    9900     778.5236   -25494.089   -26299.045    -144.7778    -102.8395   -101.63932   -229.85459    41.083779    41.083779    82.167558 
   10000    763.55973   -25493.954   -26283.438    233.65279    361.07051    356.64152   -16.753654    41.084945    41.084945     82.16989 
   10100    776.55104   -25493.801   -26296.717   -157.89351   -512.53534    51.289667   -12.434865    41.086062    41.086062    82.172123 
   10200    771.66974   -25493.676   -26291.545   -57.788884    29.086609   -188.01047   -14.442789    41.086319    41.086319    82.172639 
   10300    777.31552   -25493.589   -26297.296   -209.90238   -322.34274   -120.72406   -186.64035    41.085369    41.085369    82.170738 
   10400    774.31543   -25493.489   -26294.094   -51.750561    120.47756    -541.1398    265.41055    41.083792    41.083792    82.167585 
   10500    775.54919   -25493.361   -26295.242   -35.545871     470.3583   -255.10209   -321.89383    41.082057    41.082057    82.164113 
   10600    765.08566   -25493.255   -26284.317     360.2625    484.52677    180.87167    415.38906    41.080343    41.080343    82.160685 
   10700    783.57473    -25493.19   -26303.368 -0.0071836975    108.12541   -19.633267   -88.513697     41.07952     41.07952     82.15904 
   10800    772.57028   -25493.127   -26291.928    217.57856   -18.966481    428.62559    243.07657    41.080101    41.080101    82.160202 
   10900    770.26928     -25493.1   -26289.521    110.30085    333.18999    108.25183   -110.53928    41.081503    41.081503    82.163006 
   11000    786.01464   -25493.058   -26305.759   -255.61728   -601.02006   -135.66955   -30.162243    41.083568    41.083568    82.167136 
   11100     771.3117   -25493.027   -26290.526   -30.751066   -304.18247   -256.15876    468.08803    41.085478    41.085478    82.170955 
   11200    779.56159   -25492.966   -26298.995   -278.24804   -732.22195   -589.85776    487.33559    41.086736    41.086736    82.173472 
   11300    780.85683   -25492.922   -26300.291   -277.36591   -240.37474   -561.55916   -30.163833     41.08677     41.08677     82.17354 
   11400    773.93613   -25492.877   -26293.089   -71.282693   -10.969979    20.239329   -223.11743    41.085855    41.085855     82.17171 
   11500    766.85774   -25492.869   -26285.763    212.20612    367.56699    261.96416    7.0872166    41.084102    41.084102    82.168205 
   11600    771.56127   -25492.867   -26290.625    91.839411    103.97823   -31.402239    202.94224    41.082438    41.082438    82.164876 
   11700    773.26561   -25492.836   -26292.356    107.42166   -310.51349    206.76363    426.01482      41.0815      41.0815       82.163 
   11800     775.2667    -25492.82   -26294.408    119.94474   -261.45668     399.8112    221.47972    41.081134    41.081134    82.162268 
   11900    775.09459   -25492.846   -26294.257    58.018954   -27.620353    130.16371    71.513504    41.081292    41.081292    82.162583 
   12000    773.53885   -25492.901   -26292.703    191.59878    79.274904    292.53101    202.99041    41.082092    41.082092    82.164184 
   12100    779.22351   -25492.929   -26298.608   -112.69327    -279.0709    126.27086   -185.27976     41.08367     41.08367     82.16734 
   12200    773.49216    -25492.92   -26292.673   -31.304988    189.22827   -209.03843   -74.104808    41.085336    41.085336    82.170671 
   12300    780.60702    -25492.96   -26300.071   -210.44227   -431.50994     200.8542   -400.67105    41.085961    41.085961    82.171921 
   12400    772.13878   -25492.983   -26291.338   -85.013507   -279.58857    200.70082   -176.15277    41.085686    41.085686    82.171373 
   12500    774.83922   -25492.993   -26294.139   -56.351362   -317.42658    93.380052    54.992438    41.084574    41.084574    82.169149 
   12600    781.19224   -25492.986   -26300.701   -174.02107   -811.62287    138.24548    151.31418    41.082916    41.082916    82.165832 
   12700    773.51109   -25492.992   -26292.765    145.11198   -196.66366    299.52973    332.46988    41.081079    41.081079    82.162157 
   12800    775.55218   -25492.991   -26294.875    130.42321   -36.024381     306.4977     120.7963    41.080087    41.080087    82.160174 
   12900    779.33268   -25492.979   -26298.772    23.621144    156.94126    -112.4704    26.392567    41.080341    41.080341    82.160682 
   13000    772.90807   -25492.989   -26292.139    114.50111   -314.15294    595.19702    62.459241    41.081407    41.081407    82.162814 
   13100    775.13246   -25493.025   -26294.475    57.688577    -214.4286    231.88286    155.61147    41.082755    41.082755     82.16551 
   13200    779.66855   -25493.053   -26299.193   -160.46638   -77.630747   -41.555421   -362.21297    41.084307    41.084307    82.168613 
   13300    783.46278   -25493.087   -26303.149    -303.6904   -113.70525   -302.24275    -495.1232    41.085569    41.085569    82.171137 
   13400    778.46923   -25493.133   -26298.033   -194.94683   -461.33492   -473.92965    350.42408    41.085792    41.085792    82.171583 
   13500    782.08981   -25493.181   -26301.825   -316.05857   -349.58503   -102.10634   -496.48433    41.084977    41.084977    82.169953 
   13600    772.65342   -25493.229   -26292.115    92.418941   -458.49715    424.98982    310.76415    41.083267    41.083267    82.166534 
   13700    766.66253   -25493.299   -26285.991     211.1163    460.74086    104.36438    68.243666    41.081411    41.081411    82.162821 
   13800    784.82405   -25493.322   -26304.793   -59.986962   -378.68308    42.687063    156.03513    41.080513    41.080513    82.161026 
   13900    776.22164   -25493.376   -26295.952     68.72658   -50.512954    121.84249    134.85021    41.080343    41.080343    82.160685 
   14000    772.16743   -25493.386    -26291.77    145.55011    132.89638     239.5094    64.244551    41.081549    41.081549    82.163098 
   14100    773.34295   -25493.389   -26292.988    35.262405    -59.78393    350.74034   -185.16919    41.083327    41.083327    82.166655 
   14200    777.42173   -25493.394    -26297.21   -117.95329   -556.84301     45.83625     157.1469    41.085065    41.085065    82.170131 
   14300    778.50608   -25493.405   -26298.343   -210.31286   -304.50895   -342.74344    16.313793    41.086262    41.086262    82.172523 
   14400    774.11516   -25493.436   -26293.834   -100.45435   -307.57446    -28.72704    34.938435    41.086381    41.086381    82.172761 
   14500    784.47895   -25493.426    -26304.54   -385.35884   -455.05119   -125.94527   -575.08007     41.08575     41.08575      82.1715 
   14600    773.24847   -25493.416   -26292.918     26.84479    35.728419   -120.37859    165.18455    41.084272    41.084272    82.168544 
   14700    780.34505   -25493.394   -26300.233   -108.69088    139.49442   -491.22501    25.657963    41.082674    41.082674    82.165347 
   14800    772.30985   -25493.397   -26291.928    144.17697    1.9297249    176.30644    254.29473    41.081242    41.081242    82.162485 
   14900    765.97065   -25493.417   -26285.394    353.64999    123.10991    506.69987     431.1402     41.08035     41.08035    82.160701 
   15000    778.88675   -25493.386   -26298.717   -30.367647   -12.108134   -275.09708    196.10227    41.080897    41.080897    82.161795 
   15100    778.03694   -25493.377    -26297.83    44.191855   -103.06202     3.738122    231.89946    41.082108    41.082108    82.164215 
   15200     780.7857   -25493.378   -26300.673   -232.01792   -106.21021   -339.05333   -250.79023    41.083805    41.083805    82.167609 
   15300    775.20339   -25493.343   -26294.866   -61.142369    86.647304    -79.49935   -190.57506     41.08528     41.08528    82.170561 
   15400    772.49989   -25493.305   -26292.033    -99.48331   -386.77577   -164.26396     252.5898    41.086149    41.086149    82.172297 
   15500     776.2455    -25493.24    -26295.84    -114.0917    6.0653952   -322.85527   -25.485216    41.086381    41.086381    82.172761 
   15600    778.13446   -25493.196   -26297.749   -177.97727   -383.38196    257.62723   -408.17708    41.085708    41.085708    82.171415 
   15700    775.97506   -25493.153   -26295.474   -45.004376   -320.81355    36.955258    148.84517    41.084223    41.084223    82.168446 
   15800    779.52741   -25493.107     -26299.1   -138.33213   -32.218079   -335.62325   -47.155066     41.08252     41.08252    82.165039 
   15900    773.02042   -25493.035   -26292.301     141.3584   -220.23189    563.57705    80.730025    41.081169    41.081169    82.162338 
   16000    766.40135   -25493.019   -26285.441    424.66563    308.64124    510.94354     454.4121    41.079897    41.079897    82.159794 
   16100    764.59017   -25493.042   -26283.592    413.57145    475.47892    336.29106    428.94437    41.079534    41.079534    82.159068 
   16200    771.97542   -25493.073   -26291.259    183.92252    263.57894    331.73589   -43.547283    41.080399    41.080399    82.160797 
   16300    767.91422   -25493.091   -26287.078     228.6414    506.31253    236.16009   -56.548427    41.082193    41.082193    82.164386 
   16400    780.79433   -25493.083   -26300.387   -132.66933   -144.52585   -95.211445   -158.27068    41.084458    41.084458    82.168915 
   16500    760.95714     -25493.1   -26279.893    272.78817    85.070316    200.59926    532.69494    41.086162    41.086162    82.172325 
   16600    773.61574   -25493.061   -26292.943   -145.45324    -247.3021   -176.48883   -12.568785    41.087519    41.087519    82.175039 
   16700    776.50457   -25493.058   -26295.926   -153.69229    145.23192   -209.83346   -396.47532    41.087145    41.087145    82.174289 
   16800    774.34886   -25493.021    -26293.66   -58.303862    97.000222    -134.5575   -137.35431    41.085751    41.085751    82.171502 
   16900    760.29993   -25492.999   -26279.112    358.34723   -33.529193    750.76764    357.80322    41.083645    41.083645     82.16729 
   17000    772.99488   -25492.997   -26292.236    163.10619    84.394893    384.05789    20.865796    41.081503    41.081503    82.163006 
   17100    778.89699   -25492.973   -26298.315    157.09622    368.59869    289.12508   -186.43512    41.080267    41.080267    82.160533 
   17200    771.57356    -25492.94    -26290.71    337.17699    100.23887     381.4004    529.89171    41.080463    41.080463    82.160925 
   17300    777.54723   -25492.939   -26296.886    29.886524    211.19088   -87.445374   -34.085937    41.081798    41.081798    82.163595 
   17400     764.3363    -25492.96   -26283.247    186.26573    163.79396    185.46282    209.54041    41.083348    41.083348    82.166697 
   17500    781.52674   -25492.928   -26300.989   -250.21356   -87.942574   -463.99567   -198.70244    41.085117    41.085117    82.170234 
   17600    765.17944   -25492.945   -26284.104    121.08183    147.16654   -39.111903    255.19086    41.085745    41.085745    82.171491 
   17700    773.11854    -25492.92   -26292.288   -146.66549    -196.6692    -224.2761   -19.051179    41.085816    41.085816    82.171632 
   17800    773.96259   -25492.889   -26293.129   -15.193498   -130.10548    357.25087   -272.72588    41.084735    41.084735    82.169469 
   17900     777.2692   -25492.838   -26296.497   -79.810567    300.85315     40.57711   -580.86196    41.083261    41.083261    82.166522 
   18000    772.63809   -25492.797   -26291.667    87.659475   -137.49948    270.07298    130.40493    41.081677    41.081677    82.163353 
   18100    775.97382   -25492.749   -26295.069     80.51926    147.20366    330.85745   -236.50332    41.080648    41.080648    82.161297 
   18200    771.40895   -25492.743   -26290.343    272.81389    307.61175   -68.313563    579.14347    41.080318    41.080318    82.160637 
   18300    764.01479   -25492.761   -26282.715    343.78883    157.82626    128.15786    745.38237    41.080892    41.080892    82.161783 
   18400    780.57664   -25492.763   -26299.842   -56.888315    109.10227   -444.14559    164.37838     41.08241     41.08241    82.164821 
   18500    764.88241   -25492.805   -26283.656    237.72575    281.77756     254.1571    177.24259    41.083758    41.083758    82.167515 
   18600    775.26967    -25492.78   -26294.372   -122.08148    44.979965   -231.67299   -179.55141    41.085216    41.085216    82.170431 
   18700    777.39406   -25492.773   -26296.561   -172.52358   -215.37954   -282.12551   -20.065679     41.08571     41.08571    82.171419 
   18800     777.6946    -25492.78   -26296.879   -160.71255   -13.127685   -431.17111   -37.838853     41.08514     41.08514     82.17028 
   18900    778.67508   -25492.763   -26297.876   -165.40733    49.983348   -239.36714   -306.83822    41.084128    41.084128    82.168256 
   19000    771.79679   -25492.749    -26290.75    137.24512   -251.79506    576.47366    87.056758    41.082853    41.082853    82.165706 
   19100    777.84597   -25492.746   -26297.001    9.4639748   -7.4442928   -133.64682    169.48304    41.081911    41.081911    82.163822 
   19200    769.38909   -25492.756   -26288.268    255.41618     341.5312    173.70555     251.0118    41.081508    41.081508    82.163015 
   19300    777.50396   -25492.765   -26296.667    63.872248   -26.868598   0.81199955    217.67334    41.081722    41.081722    82.163445 
   19400    783.55635    -25492.82    -26302.98   -103.50025    613.87958   -450.94338   -473.43695    41.082307    41.082307    82.164614 
   19500    779.05613   -25492.865   -26298.372    -139.4651   -127.14189   -176.27358   -114.97984      41.0834      41.0834      82.1668 
   19600    778.83516   -25492.904   -26298.182   -99.630008   -5.3326536   -321.36747    27.810102    41.084442    41.084442    82.168884 
   19700    770.15658   -25492.971   -26289.276    -42.37063    10.408869    42.074301   -179.59506    41.084852    41.084852    82.169704 
   19800    768.35471   -25492.981   -26287.423     62.58369     32.53811   -194.35964     349.5726    41.084997    41.084997    82.169993 
   19900    765.88096   -25492.992   -26284.876     0.773469    199.91299   -142.35092    -55.24167    41.084528    41.084528    82.169055 
   20000    777.17065   -25492.989   -26296.546    -138.8345   -202.12303    28.375618   -242.75609    41.083504    41.083504    82.167008 
   20100    782.17595    -25492.98   -26301.712   -187.94937   -247.43461   -109.65192    -206.7616    41.082377    41.082377    82.164755 
   20200    772.04421   -25492.964   -26291.221    35.170099     516.8712   -66.506325   -344.85458    41.081384    41.081384    82.162768 
   20300    771.63176   -25492.925   -26290.755    162.21361    224.00288     175.0152    87.622766    41.080798    41.080798    82.161596 
   20400    769.01692   -25492.897   -26288.024    259.30754    197.65464     322.3488    257.91919    41.080879    41.080879    82.161758 
   20500    781.62977   -25492.888   -26301.056   -147.21961   -333.82553    42.151053   -149.98434    41.081759    41.081759    82.163518 
   20600    767.53243   -25492.912   -26286.504     217.2872   -247.48024    592.67047    306.67137    41.082891    41.082891    82.165782 
   20700    778.10056   -25492.889   -26297.407   -84.089765   -115.54001    205.61982   -342.34911    41.084919    41.084919    82.169838 
   20800     792.5265   -25492.843   -26312.278   -535.44008   -639.40086    -361.9855   -604.93387    41.086925    41.086925     82.17385 
   20900    774.88712   -25492.822   -26294.018    -189.1808   -75.284804    99.650469   -591.90805    41.087674    41.087674    82.175348 
   21000    770.28777   -25492.813   -26289.253   -28.659809    272.98812   -89.549594   -269.41795    41.087177    41.087177    82.174354 
   21100    772.15708   -25492.763   -26291.136    63.239049    87.541113    173.25795   -71.081916     41.08611     41.08611    82.172219 
   21200    774.53982   -25492.686   -26293.523    21.376031    -389.5649    364.75141    88.941582    41.084741    41.084741    82.169481 
   21300    766.31781   -25492.629   -26284.965    314.86535     78.54732    362.54885    503.49989    41.083044    41.083044    82.166088 
   21400    774.01646   -25492.582   -26292.878    31.185496    637.16559   -435.19536   -108.41374    41.081684    41.081684    82.163368 
   21500    778.55137   -25492.564   -26297.549    31.637739    390.80537   -97.508117   -198.38404     41.08056     41.08056    82.161121 
   21600    768.22055   -25492.555   -26286.858    287.32285    428.24305    183.26506    250.46044     41.08018     41.08018     82.16036 
   21700     774.9295   -25492.531   -26293.771    90.931648    83.071704    209.25121    -19.52797    41.080915    41.080915     82.16183 
   21800    772.63868    -25492.54   -26291.412    134.03208    244.18459   -54.475997    212.38765    41.082255    41.082255    82.164511 
   21900    773.63467   -25492.565   -26292.466     93.00596    406.90589    262.29883   -390.18684    41.084018    41.084018    82.168036 
   22000    781.00703   -25492.578   -26300.102   -157.84066   -31.776082    132.19428   -573.94017    41.085885    41.085885    82.171771 
   22100     772.2711    -25492.62   -26291.111   -28.199943   -107.43209   -117.32758    140.15984     41.08692     41.08692     82.17384 
   22200    772.93138   -25492.664   -26291.838   -87.890731   -138.17002   -1.3845703   -124.11761    41.086991    41.086991    82.173981 
   22300    779.26378   -25492.718    -26298.44   -175.71183   -55.862582    22.444327   -493.71723    41.085833    41.085833    82.171665 
   22400     769.6856   -25492.788   -26288.605    90.396047   -61.700284   -34.066611    366.95504    41.083802    41.083802    82.167603 
   22500    776.93013   -25492.856   -26296.164    8.4401857   -137.62463    250.40685   -87.461657    41.081891    41.081891    82.163781 
   22600    776.28817   -25492.932   -26295.577    61.501507    105.30586    319.09536    -239.8967    41.080658    41.080658    82.161316 
   22700    775.33749   -25492.979   -26294.641    157.63634    123.80801     291.2628    57.838211    41.080464    41.080464    82.160927 
   22800    773.78149   -25493.017    -26293.07    120.60845    143.31914    113.57104    104.93516     41.08147     41.08147    82.162939 
   22900    772.09138   -25493.064    -26291.37    155.42572    244.11289     132.6643    89.499969    41.083056    41.083056    82.166112 
   23000    782.41551   -25493.078   -26302.058   -233.18392   -67.527909    -371.4871   -260.53676    41.085266    41.085266    82.170533 
   23100    773.67504   -25493.127    -26293.07   -130.08922    70.232334   -113.61762   -346.88237    41.086614    41.086614    82.173228 
   23200    767.17172   -25493.192    -26286.41    19.608037   -198.68222    159.34817    98.158165    41.086691    41.086691    82.173382 
   23300    775.56177    -25493.26   -26295.153   -149.78873    153.15336    17.922888   -620.44245    41.085488    41.085488    82.170976 
   23400    777.93819   -25493.293   -26297.643   -50.155041   -392.08683   -100.50002    342.12172    41.083824    41.083824    82.167648 
   23500    768.04799   -25493.298   -26287.422    205.72526    400.72961   -20.990994    237.43717    41.082261    41.082261    82.164521 
   23600    778.48593   -25493.268   -26298.185   -13.111843    176.46279   -379.16599    163.36768    41.081314    41.081314    82.162629 
   23700    774.75556   -25493.227   -26294.287    94.986443    360.25628   -232.53225     157.2353    41.081146    41.081146    82.162291 
   23800    770.79768   -25493.211   -26290.179    163.84837    493.26376    -670.5508    668.83216     41.08146     41.08146    82.162919 
   23900    782.66255   -25493.195   -26302.431   -173.05341   -405.67212   -312.93702    199.44891    41.082164    41.082164    82.164327 
   24000    775.10795   -25493.181   -26294.605   -1.1756681    196.04431   -355.23022     155.6589    41.082963    41.082963    82.165925 
   24100     767.7107   -25493.177   -26286.953     199.2964    24.787272   -64.736219    637.83814    41.083613    41.083613    82.167226 
   24200    777.09699   -25493.147   -26296.628   -223.88129     78.79485    -452.5562   -297.88254    41.084165    41.084165    82.168329 
   24300     770.5694   -25493.112   -26289.844    69.041996    86.076699    187.31849   -66.269198    41.084056    41.084056    82.168113 
   24400    771.21477    -25493.06   -26290.459    122.79418     377.7727   -95.713089    86.322935    41.083932    41.083932    82.167864 
   24500     774.9622   -25493.036    -26294.31   -70.597224    34.770561   -259.07163    12.509396    41.083774    41.083774    82.167547 
   24600     770.5743   -25493.015   -26289.752    62.729473   -7.7996937   -2.9167169    198.90483    41.083469    41.083469    82.166937 
   24700    771.96003   -25492.999   -26291.168    53.745989   -61.264472    322.34918   -99.846744    41.082945    41.082945    82.165889 
   24800    777.39411    -25493.02   -26296.808   -42.725838    318.89511   -199.98063   -247.09199    41.082235    41.082235    82.164471 
   24900    773.05433    -25493.05   -26292.351    154.56616    726.65774   -55.920973   -207.03829     41.08165     41.08165    82.163301 
   25000    772.30461   -25493.075   -26291.601    181.11831    123.49939    526.59551   -106.73998    41.081621    41.081621    82.163241 
   25100    770.95134   -25493.057   -26290.184    138.43006    247.10198    132.36183    35.826361    41.082621    41.082621    82.165241 
   25200    776.01037   -25493.034   -26295.392   -78.253354    69.858372   -676.18064    371.56221    41.083884    41.083884    82.167768 
   25300    775.13085   -25493.041   -26294.489   -43.792994   -228.75749    309.33248   -211.95397    41.084735    41.084735    82.169471 
   25400    780.00322   -25493.038   -26299.524   -171.63184    128.42719    -337.4584   -305.86432    41.085481    41.085481    82.170961 
   25500    774.98065   -25493.035   -26294.327   -49.834969    -159.8474   -49.369912    59.712404    41.085725    41.085725     82.17145 
   25600    777.88412   -25493.019   -26297.314   -205.46014   -260.61812    92.991608   -448.75392    41.085517    41.085517    82.171033 
   25700    771.89636   -25493.002   -26291.105    29.860972      398.208   -113.46961   -195.15547    41.084783    41.084783    82.169566 
   25800    779.34946   -25492.977   -26298.787   -91.368193   -492.02871    58.025988    159.89815    41.083862    41.083862    82.167725 
   25900    771.07653   -25493.006   -26290.262     72.07207    567.19096   -112.74559   -238.22915    41.082405    41.082405    82.164809 
   26000    775.85157       -25493   -26295.193    56.736017    114.48273    378.76705   -323.04174    41.081366    41.081366    82.162732 
   26100    777.66301   -25492.996   -26297.062    155.42432    196.20376    204.70572    65.363488    41.081059    41.081059    82.162119 
   26200    775.02557   -25492.979   -26294.318    116.50536   -72.673303    -90.97294    513.16232    41.082006    41.082006    82.164013 
   26300      777.984    -25492.95   -26297.348   -39.156032     261.8605   -100.61819   -278.71041    41.083758    41.083758    82.167515 
   26400     772.3266    -25492.96   -26291.509    5.6512558   -242.66649    202.06952    57.550732    41.085186    41.085186    82.170372 
   26500    778.67324   -25492.976   -26298.086   -147.18229     -442.891   -128.00091    129.34503     41.08623     41.08623    82.172459 
   26600    775.22934   -25492.997   -26294.547   -170.94332   -347.45738    93.161033    -258.5336    41.086321    41.086321    82.172643 
   26700      785.934    -25493.01   -26305.628   -371.07905   -340.49014   -22.958703   -749.78832    41.085472    41.085472    82.170943 
   26800    769.90098   -25493.078   -26289.119    160.75921    12.528559    908.40279   -438.65371     41.08353     41.08353     82.16706 
   26900    785.73528    -25493.08   -26305.492   -194.62106   -35.428082   -157.91821   -390.51688    41.082224    41.082224    82.164447 
   27000     765.4412   -25493.107   -26284.537    289.06225    81.309865    780.75559    5.1213004    41.081201    41.081201    82.162403 
   27100    775.80999   -25493.105   -26295.255    51.681326    623.99667   -415.86764   -53.085054    41.081163    41.081163    82.162326 
   27200    773.01684   -25493.092   -26292.355    87.647324     110.1944    377.34391   -224.59633    41.081838    41.081838    82.163676 
   27300    770.16589   -25493.079   -26289.393    132.34294    267.76706    402.52549   -273.26375    41.082978    41.082978    82.165957 
   27400    766.06283   -25493.093   -26285.165    220.92903    52.204941    207.10287    403.47929    41.084103    41.084103    82.168206 
   27500    766.18319    -25493.08   -26285.276    121.45879    -230.1357    290.70998    303.80209    41.085355    41.085355    82.170709 
   27600    785.02255   -25493.064   -26304.739   -420.12614   -289.17937   -409.08864   -562.11042    41.085965    41.085965     82.17193 
   27700    771.75004   -25493.063   -26291.016   -26.452661   -40.612971    54.644421   -93.389432    41.085448    41.085448    82.170896 
   27800    780.06152   -25493.037   -26299.584   -215.98509   -32.053102   -347.07268   -268.82949    41.084525    41.084525    82.169051 
   27900    777.52069   -25493.031    -26296.95    -99.63552   -475.19675    6.2517555    170.03844    41.082811    41.082811    82.165622 
   28000      784.089   -25493.031   -26303.741   -139.80501   -530.63922    107.78766    3.4365124    41.080979    41.080979    82.161957 
   28100    770.76528   -25493.044   -26289.978    247.01197    411.80181     294.6497    34.584401    41.079762    41.079762    82.159524 
   28200    772.21596   -25493.018   -26291.452    176.84671    467.24991    116.15282   -52.862611    41.079981    41.079981    82.159961 
   28300    777.07799   -25492.999    -26296.46    63.090846   -146.50035     201.4311    134.34178    41.081303    41.081303    82.162605 
   28400    775.97275   -25493.001    -26295.32    80.172176    94.909047     464.9158   -319.30832    41.083118    41.083118    82.166235 
   28500    775.70411   -25493.053   -26295.094   -116.50556   -338.92856    302.26477   -312.85289    41.084877    41.084877    82.169753 
   28600    768.58096   -25493.104   -26287.779    17.178373    438.32753   -338.93754   -47.854874    41.085983    41.085983    82.171966 
   28700    773.16591   -25493.104   -26292.521    -83.26051   -139.11422   -67.286008   -43.381305    41.086508    41.086508    82.173015 
   28800    763.05467   -25493.154   -26282.116    207.93595    349.08048    174.06586     100.6615     41.08571     41.08571    82.171419 
   28900    779.99603   -25493.141   -26299.619   -179.68654   -260.36296   -109.99778    -168.6989    41.084832    41.084832    82.169663 
   29000    779.32548   -25493.112   -26298.897   -61.547309    331.49917   -96.639936   -419.50116     41.08358     41.08358    82.167159 
   29100    770.87092   -25493.106    -26290.15    223.10182    330.72368    160.46318     178.1186    41.082223    41.082223    82.164446 
   29200    778.65718   -25493.091   -26298.185     35.47403    159.04227    174.70085   -227.32103    41.081703    41.081703    82.163407 
   29300    781.70874   -25493.101   -26301.351   -86.373022    407.26192   -536.91653   -129.46445    41.081904    41.081904    82.163809 
   29400     772.9911   -25493.123   -26292.358    114.32441    78.281866    333.78898   -69.097606    41.082408    41.082408    82.164816 
   29500     783.7288   -25493.119   -26303.457   -279.83882    7.3820006   -237.35043   -609.54803    41.083424    41.083424    82.166847 
   29600    772.45334   -25493.132   -26291.812   -29.988503    304.64865     71.59032   -466.20448    41.083862    41.083862    82.167724 
   29700    773.55807   -25493.105   -26292.927   -13.416939    216.67235   -274.38714    17.463974     41.08424     41.08424     82.16848 
   29800    771.81666   -25493.085   -26291.106    63.978125    307.18831    155.39603   -270.64997    41.084306    41.084306    82.168613 
   29900     779.4203   -25493.071   -26298.954   -134.95491    350.30084   -221.21203   -533.95355     41.08439     41.08439     82.16878 
   30000    780.90366   -25493.043   -26300.459   -161.45888   -317.69432   -16.935381   -149.74694    41.084466    41.084466    82.168932 
   30100    770.70334   -25493.032   -26289.902    66.234907    58.594802    301.19436   -161.08445    41.084181    41.084181    82.168362 
   30200    765.46994   -25493.021    -26284.48    143.43239    474.32999    401.85536   -445.88818    41.083803    41.083803    82.167606 
   30300    784.08828   -25492.973   -26303.682   -156.94768   -343.88426   -133.57736    6.6185824    41.083477    41.083477    82.166954 
   30400    774.16563   -25492.964   -26293.414    110.14589   -196.29092    495.17317    31.555417     41.08291     41.08291    82.165821 
   30500    778.58765   -25492.965   -26297.987   -44.658659   -154.31734    140.90395   -120.56259    41.082694    41.082694    82.165387 
   30600    773.79558   -25492.961   -26293.029     8.105159   -180.44514    20.120714     184.6399    41.082646    41.082646    82.165292 
   30700    769.73038   -25492.949   -26288.813    130.48325    493.32167    63.331725   -165.20365    41.082853    41.082853    82.165706 
   30800    775.39055    -25492.89   -26294.606   -83.625113    317.58532   -291.99789   -276.46277    41.083463    41.083463    82.166926 
   30900    776.49642   -25492.848   -26295.708   -144.88336   -313.11723    139.08187   -260.61472    41.083574    41.083574    82.167147 
   31000     766.2938   -25492.808   -26285.119    214.51922   -95.612705     336.5929    402.57747    41.083236    41.083236    82.166472 
   31100    777.26044   -25492.778   -26296.428    40.099285    43.887755   -153.91143    230.32153    41.082999    41.082999    82.165998 
   31200    774.41552   -25492.769   -26293.477    101.15569    -232.9602    146.44396    389.98329    41.082672    41.082672    82.165344 
   31300    778.82823   -25492.748   -26298.019   -72.448699     286.9946   -286.19212   -218.14858    41.082962    41.082962    82.165924 
   31400    778.91539   -25492.728   -26298.089    -28.18037   -219.81521    182.39155   -47.117455    41.083606    41.083606    82.167213 
   31500    771.53359   -25492.773   -26290.502    41.011209     217.4694    264.33024   -358.76601    41.084152    41.084152    82.168304 
   31600    778.72888   -25492.813   -26297.981   -168.54997    40.255984   -357.49969   -188.40619    41.084661    41.084661    82.169322 
   31700     766.0018   -25492.876   -26284.885    115.87998    50.043469    477.54041   -179.94394    41.084439    41.084439    82.168877 
   31800    769.78901   -25492.903   -26288.827    23.733463   -23.925057    300.57047   -205.44502    41.084028    41.084028    82.168055 
   31900    780.57594   -25492.891   -26299.969   -211.42979   -376.34818   -121.01985   -136.92135    41.083504    41.083504    82.167008 
   32000    775.11485   -25492.901   -26294.332   -34.269921   -343.15636    311.92633   -71.579727    41.082459    41.082459    82.164918 
   32100    772.08227   -25492.912   -26291.208    84.914562    126.18571    206.84037   -78.282393    41.081398    41.081398    82.162796 
   32200     777.4473   -25492.911   -26296.754    20.905762   -474.91141    298.23937    239.38932    41.081029    41.081029    82.162058 
   32300    775.92699   -25492.926   -26295.197    110.14152    134.51416   -292.23697    488.14736    41.081219    41.081219    82.162438 
   32400    784.17513   -25492.939   -26303.738   -118.23161    101.15164    185.43106   -641.27754    41.082158    41.082158    82.164317 
   32500    772.59177   -25492.966   -26291.789    99.255875    73.590897    16.761756    207.41497    41.083281    41.083281    82.166562 
   32600    780.85792   -25493.009   -26300.378   -183.20464   -169.33974   -163.73195   -216.54224    41.084152    41.084152    82.168303 
   32700    772.06376   -25493.048   -26291.324    44.326165    158.43626   -147.57968    122.12192    41.084724    41.084724    82.169447 
   32800    772.92118   -25493.101   -26292.265    7.5432504   -17.994233   -107.90176    148.52574    41.084993    41.084993    82.169985 
   32900    775.76843   -25493.155   -26295.262   -57.627242   -111.32486   -281.86485    220.30798    41.084909    41.084909    82.169818 
   33000    770.94536   -25493.174   -26290.295    106.84942   -244.56139   -32.051952    597.16161     41.08482     41.08482     82.16964 
   33100    774.67269   -25493.246   -26294.221   -78.109149   -72.655058   -220.21879    58.546404    41.084304    41.084304    82.168608 
   33200    773.95785    -25493.28   -26293.515    59.957742    162.14234    66.180468   -48.449585    41.083551    41.083551    82.167102 
   33300    770.12794   -25493.258   -26289.533    137.71374     582.5036   -465.45352    296.09115     41.08307     41.08307    82.166141 
   33400    777.23107   -25493.227   -26296.847   -76.926104   -137.35149   -55.829856   -37.596966    41.082809    41.082809    82.165617 
   33500    768.66791   -25493.236   -26288.001    260.21957    142.81555    260.53052    377.31263      41.0824      41.0824    82.164799 
   33600    787.59691   -25493.219   -26307.557   -317.56128   -101.86555   -372.86316   -477.95514    41.082684    41.082684    82.165368 
   33700    775.26077   -25493.229   -26294.812    21.114424   -373.18101    225.82689    210.69739    41.082694    41.082694    82.165389 
   33800    772.07029   -25493.222   -26291.505     79.05367    498.17619   -225.68737   -35.327817    41.082972    41.082972    82.165943 
   33900    770.54874   -25493.203   -26289.913    29.868754    6.5054444    322.09083   -238.99001    41.083396    41.083396    82.166793 
   34000    779.19747   -25493.189   -26298.842   -153.06862   -300.91533   -146.94614    -11.34439    41.083585    41.083585     82.16717 
   34100    778.96204    -25493.21   -26298.619   -101.36609    43.427939   -47.638609   -299.88761    41.083051    41.083051    82.166101 
   34200    772.98154   -25493.199   -26292.425    55.953753    184.77575    31.335367   -48.249856    41.082495    41.082495    82.164991 
   34300    774.09658   -25493.177   -26293.556    77.422967   -5.6904264    71.140005    166.81932    41.082149    41.082149    82.164297 
   34400    763.10118   -25493.179   -26282.189    336.10409    280.25124    392.26376    335.79727    41.081854    41.081854    82.163708 
   34500    772.40523    -25493.15    -26291.78    145.30446    -530.8222    473.54624    493.18935    41.082123    41.082123    82.164245 
   34600    781.24573   -25493.125   -26300.896   -147.50918   -440.77362   -256.66269    254.90877     41.08267     41.08267    82.165339 
   34700    780.51892   -25493.097   -26300.116   -139.97087   -406.89432    92.870517    -105.8888    41.083312    41.083312    82.166624 
   34800    768.93777    -25493.07   -26288.114    197.49957    272.41633    207.41761    112.66478    41.084062    41.084062    82.168124 
   34900    775.26597    -25493.04   -26294.627   -30.368117   -29.437186   -111.79517    50.128006    41.084691    41.084691    82.169382 
   35000    770.93257   -25493.013   -26290.121    14.829455     139.0235    301.67556   -396.21069     41.08479     41.08479    82.169581 
   35100    774.08789   -25492.955   -26293.325   -29.186495   -420.20428   -62.274472    394.91926    41.084552    41.084552    82.169103 
   35200    774.87031   -25492.899   -26294.078    43.713744    24.518607    210.85047   -104.22784    41.083899    41.083899    82.167799 
   35300    782.26173   -25492.848   -26301.669   -134.61153   -211.87456    34.449464    -226.4095    41.083418    41.083418    82.166835 
   35400    771.60433    -25492.81   -26290.612    192.08065    315.47411   -162.55015      423.318    41.083125    41.083125     82.16625 
   35500    775.87581   -25492.781   -26294.999   -36.362877     118.1728     4.456731   -231.71816    41.083336    41.083336    82.166671 
   35600    778.67015   -25492.744   -26297.851   -113.27365   -373.54447    457.20643    -423.4829     41.08374     41.08374    82.167479 
   35700    774.34777   -25492.725   -26293.363    -25.57169   -89.316119   -202.38523    214.98628    41.084046    41.084046    82.168091 
   35800    775.49407   -25492.708   -26294.531   -68.737756   -430.69263    -86.50677    310.98613    41.084209    41.084209    82.168418 
   35900    771.25236   -25492.702    -26290.14    38.416859    149.94182    71.937819   -106.62906    41.083921    41.083921    82.167841 
   36000    791.64097   -25492.685   -26311.203   -445.23233    -674.9843   -513.70136   -147.01132    41.083679    41.083679    82.167358 
   36100    762.26387   -25492.694   -26280.838    299.31654     217.7213    265.40899    414.81934    41.082896    41.082896    82.165791 
   36200    776.81645   -25492.676   -26295.867    -38.67809   -270.77838    83.177671    71.566436    41.082381    41.082381    82.164761 
   36300    769.97659   -25492.674   -26288.793    89.219369    162.31265    151.07396   -45.728502    41.081952    41.081952    82.163904 
   36400    779.78192   -25492.622   -26298.879   -61.994822   -242.61672    231.43451   -174.80226    41.082081    41.082081    82.164163 
   36500    778.91097   -25492.614   -26297.971   -39.720363   -60.614856   -72.114727    13.568494    41.082139    41.082139    82.164279 
   36600    762.15831   -25492.614   -26280.649    332.50369    578.71507    597.49891   -178.70291    41.082262    41.082262    82.164525 
   36700    772.99586   -25492.599    -26291.84   -20.577477   0.35531455    174.11823   -236.20597    41.082899    41.082899    82.165798 
   36800    776.09767   -25492.552       -26295   -9.1057379    156.24562    100.73818   -284.30101    41.083646    41.083646    82.167292 
   36900     777.6045   -25492.524    -26296.53    -92.21088    7.4877352    111.59441   -395.71479     41.08425     41.08425    82.168501 
   37000    775.31544   -25492.508   -26294.146    -10.84351   -3.9027315    260.42106   -289.04886    41.084717    41.084717    82.169434 
   37100    783.16615    -25492.46   -26302.216   -343.19266   -221.27676   -467.91948   -340.38174    41.085273    41.085273    82.170546 
   37200    772.37869   -25492.421   -26291.023   -22.450864   -79.057633    128.65857   -116.95353    41.084976    41.084976    82.169951 
   37300    781.18257   -25492.382   -26300.087   -172.72274   -401.63442   -315.70325    199.16946    41.084268    41.084268    82.168537 
   37400    775.88628   -25492.353   -26294.582   -16.596654   -110.59541    123.59652   -62.791075    41.083271    41.083271    82.166541 
   37500    778.93686    -25492.31   -26297.693   -122.33476   -162.85399  -0.64076669   -203.50951    41.082649    41.082649    82.165299 
   37600     771.0482   -25492.318   -26289.545     160.2336   -296.17322    371.14189    405.73213    41.081835    41.081835     82.16367 
   37700    772.57508   -25492.303   -26291.109    78.473926    150.18225   -379.10346    464.34298    41.081673    41.081673    82.163345 
   37800    779.20768   -25492.296   -26297.959   -44.615263    204.22251   -210.80944   -127.25886    41.081897    41.081897    82.163793 
   37900    775.38704   -25492.316   -26294.029   0.94165982   -177.15272   -93.366992    273.34469    41.082406    41.082406    82.164812 
   38000    773.71943   -25492.319   -26292.307    62.526409    118.30424   -303.16134    372.43632    41.083341    41.083341    82.166683 
   38100    777.46959   -25492.331   -26296.197   -128.31179   -144.02595   -590.68299    349.77357    41.084343    41.084343    82.168686 
   38200    782.90666    -25492.37   -26301.857   -199.05847   -70.570323   -479.83375   -46.771337    41.085031    41.085031    82.170062 
   38300    772.48498   -25492.432   -26291.144   -36.937615   -48.436559   -4.3824205   -57.993866    41.085218    41.085218    82.170436 
   38400    777.40293   -25492.464   -26296.261   -167.56164    46.334278    146.10916   -695.12837    41.085219    41.085219    82.170437 
   38500    773.67402   -25492.509   -26292.451    8.4492083    431.50272   -91.116927   -315.03817    41.084464    41.084464    82.168927 
   38600    782.49379   -25492.519    -26301.58   -197.40055   -333.96691   -480.69052     222.4558    41.083587    41.083587    82.167173 
   38700    773.29359   -25492.561    -26292.11    142.72471     270.5012    60.028119    97.644808    41.082298    41.082298    82.164596 
   38800     785.5243     -25492.6   -26304.794   -192.22819    40.131956   -738.03825    121.22172    41.081599    41.081599    82.163198 
   38900    775.19147   -25492.628   -26294.139    21.231214    144.63359    25.503108   -106.44305    41.081461    41.081461    82.162922 
   39000    770.53345   -25492.666    -26289.36    137.39134    106.82443    22.130335    283.21927    41.081723    41.081723    82.163445 
   39100    769.46411   -25492.707   -26288.296    233.21072   -253.03518    424.78898    527.87837    41.082426    41.082426    82.164852 
   39200    786.85629   -25492.733   -26306.305   -289.52323   -483.50818   -119.41895   -265.64256    41.083848    41.083848    82.167695 
   39300    769.05302   -25492.818   -26287.982    181.70463   -421.57684    218.27573    748.41499    41.084746    41.084746    82.169492 
   39400    778.57699   -25492.874   -26297.885   -211.15655   -343.85431   -300.91449    11.299158    41.085749    41.085749    82.171499 
   39500    776.23869   -25492.941   -26295.534   -37.101536   -139.56076    14.226758    14.029389    41.085978    41.085978    82.171956 
   39600    775.41884   -25492.982   -26294.728    -64.88051   -483.24234    233.07987    55.520942    41.086033    41.086033    82.172065 
   39700    778.20378   -25493.011   -26297.636   -143.90246   -417.79791    131.70648   -145.61596    41.085823    41.085823    82.171647 
   39800    784.55592   -25493.019   -26304.212    -322.9548   -759.40068   -638.48178    429.01807    41.085065    41.085065    82.170129 
   39900    773.13525   -25493.035    -26292.42    105.97951   -11.892808     41.96011    287.87122    41.083406    41.083406    82.166813 
   40000    769.77087   -25493.079   -26288.985     225.0849    113.66068    375.61874    185.97528    41.081763    41.081763    82.163526 
   40100    774.35524   -25493.103   -26293.749    139.68157    96.971015    391.78002   -69.706321    41.080996    41.080996    82.161993 
   40200    780.33806   -25493.106   -26299.938     5.620785    22.417282     153.3377   -158.89263    41.081213    41.081213    82.162425 
   40300    775.98152   -25493.116   -26295.444    86.907336    186.75348    161.50707   -87.538547    41.082002    41.082002    82.164004 
   40400    781.35624   -25493.118   -26301.003     -111.756   -614.50312    -177.1583    456.39342     41.08328     41.08328    82.166559 
   40500    767.75882   -25493.149   -26286.974    144.05098    507.14407    95.868885   -170.86002    41.084398    41.084398    82.168796 
   40600    771.72645   -25493.138   -26291.066   -11.665314   -982.42503    630.01382    317.41526    41.085515    41.085515     82.17103 
   40700    786.10657   -25493.109   -26305.906   -437.26332   -649.53879   -334.55858   -327.69257    41.085999    41.085999    82.171998 
   40800    777.23799   -25493.109   -26296.736    -206.6841   -402.74633     255.6349   -472.94088    41.085162    41.085162    82.170324 
   40900    780.00338   -25493.096   -26299.582   -226.12248   -708.37289    893.47908   -863.47364    41.083694    41.083694    82.167388 
   41000    771.78136   -25493.119   -26291.104    111.73097   -21.760778    354.66598    2.2877083     41.08165     41.08165    82.163301 
   41100    771.68891   -25493.112   -26291.001    264.29514    592.23901    466.68704   -266.04062    41.080503    41.080503    82.161007 
   41200    778.07849   -25493.131   -26297.627    38.139715    -35.53444    191.02226    -41.06867    41.080358    41.080358    82.160716 
   41300    780.41949   -25493.129   -26300.045   -49.732057   -204.07195    165.69909   -110.82331    41.081242    41.081242    82.162484 
   41400    781.44282   -25493.137   -26301.111   -117.74523   -420.28021   -177.54763    244.59216    41.082654    41.082654    82.165308 
   41500    771.62433    -25493.17   -26290.992   -53.641177   -451.65221   -171.38903    462.11771    41.083818    41.083818    82.167635 
   41600    771.42866   -25493.169   -26290.789   -4.7630813   -130.70511    317.82512   -201.40926    41.084512    41.084512    82.169024 
   41700    769.87815   -25493.196   -26289.213    82.358275   -108.53596    61.306429    294.30436    41.084383    41.084383    82.168765 
   41800    786.42821   -25493.171     -26306.3   -313.56228   -303.18682   -293.62552   -343.87449    41.084192    41.084192    82.168384 
   41900    776.56383    -25493.17     -26296.1   -49.093419   -90.304756    6.7849061   -63.760409    41.083515    41.083515    82.167031 
   42000    764.01731    -25493.17   -26283.127     319.1677    358.57404     263.3705    335.55856    41.082592    41.082592    82.165185 
   42100    776.26909   -25493.162   -26295.787   -18.118001    465.53509   -354.19246   -165.69663    41.082277    41.082277    82.164553 
   42200    769.81911   -25493.171   -26289.127    168.14461    72.093773    620.10037   -187.76032    41.082316    41.082316    82.164633 
   42300     774.9459   -25493.137   -26294.394    77.629189   -209.53073    218.28978    224.12852    41.083063    41.083063    82.166127 
   42400    779.22173    -25493.09   -26298.768   -112.28075   -139.46011   -238.74057    41.358443    41.083995    41.083995    82.167991 
   42500    783.89396   -25493.069   -26303.577   -246.41194   -425.56869   -144.59759   -169.06954     41.08429     41.08429    82.168581 
   42600    775.02053   -25493.077   -26294.411    14.840803   -1.6513088    490.30239   -444.12867    41.083955    41.083955    82.167909 
   42700    771.75107   -25493.058   -26291.011    139.33781    2.5717736   -8.2988216    423.74049    41.083802    41.083802    82.167604 
   42800    770.22489   -25493.055   -26289.431    64.266088   -23.933454     163.2406    53.491119    41.083686    41.083686    82.167372 
   42900    781.92701   -25493.048   -26301.523   -137.43234   -262.66737    3.9162203   -153.54588      41.0835      41.0835    82.166999 
   43000    773.36118   -25493.095   -26292.713    96.621173   -14.589607    94.247869    210.20526    41.083026    41.083026    82.166051 
   43100    763.43502   -25493.086   -26282.441    209.49472    107.01318    351.85352    169.61747    41.083247    41.083247    82.166495 
   43200    776.86603   -25493.017   -26296.259   -122.88454   -437.78336    68.978919   0.15080514     41.08378     41.08378     82.16756 
   43300    768.51174   -25492.952   -26287.556    132.96794   -3.2888241    194.70419    207.48845    41.083948    41.083948    82.167896 
   43400     775.3282   -25492.847     -26294.5    15.056647    -137.9331    83.829437    99.273606    41.084435    41.084435     82.16887 
   43500    779.96636   -25492.793    -26299.24   -148.87128   -397.65564    40.460664   -89.418855    41.084621    41.084621    82.169243 
   43600    779.12469   -25492.743   -26298.321   -186.03412    -203.9302   -358.59281    4.4206383    41.084392    41.084392    82.168784 
   43700    776.45834   -25492.656   -26295.476    -16.33625   -97.729223   -97.003025     145.7235    41.084232    41.084232    82.168463 
   43800    774.63496   -25492.591   -26293.527   -52.037634     66.54886  -0.73671914   -221.92504    41.083854    41.083854    82.167708 
   43900    774.78215   -25492.554   -26293.641   -19.510848    341.00048   -45.780014   -353.75301    41.083217    41.083217    82.166434 
   44000    772.28258   -25492.545   -26291.048    105.03872   -527.74179    870.89133   -28.033394    41.082388    41.082388    82.164777 
   44100    767.41358   -25492.519   -26285.987    291.06853    458.05461    535.38347   -120.23249    41.082209    41.082209    82.164418 
   44200    778.32168   -25492.537   -26297.284   -31.905515   -49.859564    15.405213   -61.262193    41.082613    41.082613    82.165225 
   44300    787.23991   -25492.512    -26306.48   -309.91082   -446.73924   -289.31425   -193.67898    41.083695    41.083695    82.167391 
   44400    780.30003   -25492.542   -26299.334   -181.23781    54.254662    95.083281   -693.05136    41.084382    41.084382    82.168765 
   44500      775.843   -25492.577   -26294.761   -99.708202   -182.02507    154.45495   -271.55449    41.084866    41.084866    82.169733 
   44600    784.68007   -25492.573   -26303.894   -299.60517    29.990142    -327.2815   -601.52415    41.085388    41.085388    82.170777 
   44700    769.67987   -25492.617   -26288.429    80.646853    271.32417    183.48315   -212.86676     41.08492     41.08492    82.169839 
   44800    777.74642   -25492.641   -26296.793   -124.32312    365.43241   -660.42674   -77.975035    41.084344    41.084344    82.168687 
   44900    773.05574   -25492.635   -26291.937    34.814272    175.10611    115.50722   -186.17051     41.08368     41.08368    82.167359 
   45000    779.58442   -25492.625   -26298.677   -94.538205   -225.19947    362.99545   -421.41059    41.083132    41.083132    82.166265 
   45100    770.96651    -25492.66   -26289.802      163.552    372.13977    1.4594265     117.0568    41.082173    41.082173    82.164347 
   45200    777.19252   -25492.675   -26296.255      81.6028    154.29939    337.93551    -247.4265    41.081732    41.081732    82.163465 
   45300    767.61976   -25492.707   -26286.389    201.22864    263.72246    6.9188629    333.04459    41.081884    41.081884    82.163768 
   45400    777.36342   -25492.718   -26296.475    45.907926    69.301034    111.93039   -43.507647    41.082729    41.082729    82.165458 
   45500    776.74417   -25492.726   -26295.842    9.6241424    171.62926    259.56345   -402.32028    41.083912    41.083912    82.167824 
   45600     773.9039   -25492.762   -26292.941   -100.10809   -126.63169   -250.15452    76.461937    41.084848    41.084848    82.169697 
   45700    782.60224   -25492.758   -26301.931   -272.86041   -243.75226   -482.24146   -92.587511    41.085231    41.085231    82.170462 
   45800    768.18499   -25492.751   -26287.017    58.238721    -231.8347   -89.159871    495.71073    41.084889    41.084889    82.169779 
   45900    772.27217   -25492.732   -26291.224    25.922103     111.5807   -320.92318    287.10879    41.083938    41.083938    82.167877 
   46000    780.21521   -25492.741   -26299.446   -97.850268    280.72457   -394.35681   -179.91856    41.082425    41.082425     82.16485 
   46100    769.68693   -25492.744   -26288.563    250.86232   -68.382089    82.179428    738.78963      41.0813      41.0813    82.162599 
   46200    772.07044   -25492.747    -26291.03    284.11336    639.42545    137.78678    75.127858    41.081169    41.081169    82.162339 
   46300    772.89029   -25492.758   -26291.889    108.48433    183.14204     290.7089   -148.39794    41.082219    41.082219    82.164438 
   46400    775.44082   -25492.775   -26294.543    32.766007    451.11472   -431.90259    79.085891    41.083924    41.083924    82.167847 
   46500     779.7046   -25492.813    -26298.99   -241.30337   -53.709682   -632.23141   -37.969028    41.085441    41.085441    82.170882 
   46600    773.36524   -25492.815   -26292.437   -74.048467   -1.5333171   -116.74734   -103.86475      41.0863      41.0863    82.172601 
   46700    773.01197   -25492.804   -26292.061   -93.497974    424.11115   -402.08999   -302.51508    41.086301    41.086301    82.172603 
   46800    778.28943   -25492.806    -26297.52   -125.88239   -274.61222   -175.31595    72.281002    41.085261    41.085261    82.170522 
   46900    777.20472    -25492.83   -26296.423  -0.12096787   -221.07678   -171.96145    392.67533    41.083585    41.083585     82.16717 
   47000    775.79522   -25492.868   -26295.003    31.069004    75.231418    82.209076   -64.233482    41.082064    41.082064    82.164129 
   47100    774.12354   -25492.929   -26293.335    151.26821    319.47356   -214.25047    348.58154    41.080844    41.080844    82.161688 
   47200    769.05906   -25492.964   -26288.134    288.95216    32.187476    233.70763    600.96137     41.08064     41.08064     82.16128 
   47300    780.24674   -25492.958   -26299.696    -52.63796    21.328936   -173.08964    -6.153175    41.081504    41.081504    82.163008 
   47400    772.13235   -25493.032   -26291.379    122.73105    106.49057   -156.77397    418.47654    41.082191    41.082191    82.164381 
   47500    767.54048   -25493.071   -26286.671    206.21484   -197.97294    336.44007    480.17738    41.083216    41.083216    82.166432 
   47600    771.15179   -25493.077    -26290.41    14.875659    100.32545   -89.816102    34.117632    41.084417    41.084417    82.168835 
   47700    783.93308    -25493.03   -26303.579   -349.02186    -440.4748   -557.44295   -49.147829    41.085377    41.085377    82.170755 
   47800    767.48572   -25493.041   -26286.584    165.36807    45.151399    283.59025    167.36257    41.084871    41.084871    82.169741 
   47900    775.47998    -25493.04   -26294.849   -20.268115     328.3794   -412.28537     23.10163    41.083816    41.083816    82.167632 
   48000    779.15955   -25493.036    -26298.65    -57.15238   -331.88491   -82.170981    242.59875    41.082427    41.082427    82.164854 
   48100    768.82993   -25493.039   -26287.972    246.64245    405.25838    129.29416    205.37481     41.08122     41.08122    82.162439 
   48200    782.40243   -25493.025   -26301.992   -66.384945    148.37289   -502.39338    154.86565    41.080956    41.080956    82.161912 
   48300    776.25615   -25493.031   -26295.643    16.919147     98.34409    65.086185   -112.67283    41.081344    41.081344    82.162688 
   48400    773.78324   -25493.032   -26293.086    100.36242    160.23547    222.27319   -81.421389    41.082251    41.082251    82.164501 
   48500    788.74542   -25493.048   -26308.573   -340.63411    -744.4187    18.612546   -296.09618    41.083468    41.083468    82.166937 
   48600     770.8313   -25493.059   -26290.061    41.648683    251.10797    32.465504   -158.62742    41.084547    41.084547    82.169094 
   48700    762.56783   -25492.997   -26281.455    187.44034    248.67475    281.69447     31.95179    41.085729    41.085729    82.171458 
   48800    768.93569   -25492.936   -26287.979   -17.168386   -79.094193    122.38052    -94.79148    41.086152    41.086152    82.172304 
   48900    766.77672   -25492.879   -26285.689    105.46815   -229.10259    222.39431    323.11274    41.085528    41.085528    82.171057 
   49000    775.70473   -25492.806   -26294.847   -50.167164   -145.89221   -142.56941    137.96014    41.084307    41.084307    82.168614 
   49100     783.3138    -25492.74   -26302.649   -150.14184   -32.124331     2.391329    -420.6925    41.082977    41.082977    82.165954 
   49200    782.50856   -25492.697   -26301.773   -64.733126   -286.49416   -242.28012     334.5749    41.081932    41.081932    82.163863 
   49300    782.10012   -25492.666    -26301.32    -12.69452   -355.94483   -147.52513     465.3864    41.081836    41.081836    82.163672 
   49400    780.72996   -25492.662     -26299.9   -2.8967041   -56.827086    240.59608    -192.4591    41.082582    41.082582    82.165164 
   49500    764.86384   -25492.682   -26283.515    255.54339   -19.670293    95.778175    690.52228    41.083849    41.083849    82.167697 
   49600    775.47874   -25492.677   -26294.485   -159.27527   -58.978909      -563.05    144.20311    41.085203    41.085203    82.170406 
   49700    783.53269   -25492.675    -26302.81   -319.36687   -267.48056   -438.72124   -251.89882    41.085703    41.085703    82.171405 
   49800    765.10967   -25492.713     -26283.8    152.74834    122.94891   -248.64649    583.94259    41.084923    41.084923    82.169846 
   49900    775.24396   -25492.694   -26294.259   -55.730853    29.764454   -165.16303   -31.793982    41.084059    41.084059    82.168119 
   50000    772.68132   -25492.684     -26291.6    11.836975    69.818331   -185.24755    150.94014    41.082809    41.082809    82.165617 
Loop time of 1495.22 on 1 procs for 50000 steps with 8000 atoms

Pair  time (%) = 1353.39 (90.515)
Neigh time (%) = 100.419 (6.716)
Comm  time (%) = 8.75504 (0.585537)
Outpt time (%) = 0.636024 (0.0425373)
Other time (%) = 32.0116 (2.14094)

Nlocal:    8000 ave 8000 max 8000 min
Histogram: 1 0 0 0 0 0 0 0 0 0
Nghost:    9127 ave 9127 max 9127 min
Histogram: 1 0 0 0 0 0 0 0 0 0
Neighs:    301118 ave 301118 max 301118 min
Histogram: 1 0 0 0 0 0 0 0 0 0

Total # of neighbors = 301118
Ave neighs/atom = 37.6397
Neighbor list builds = 5000
Dangerous builds = 0
unfix		1

# Melt half the system
region  liquid block INF INF INF INF INF ${nzhalf}
region  liquid block INF INF INF INF INF 10
group	liquid_group region liquid
4017 atoms in group liquid_group

# Heat up one side to Tmelt to make sure it is melted
fix 2 liquid_group npt temp ${Tmelt} ${Tmelt} 1 z 0 0 10 drag 1.0
fix 2 liquid_group npt temp 2000 ${Tmelt} 1 z 0 0 10 drag 1.0
fix 2 liquid_group npt temp 2000 2000 1 z 0 0 10 drag 1.0
run		${eqsteps}
run		50000
Memory usage per processor = 5.95825 Mbytes
Step Temp TotEng PotEng Press Pxx Pyy Pzz Lx Ly Lz 
   50000    772.68132   -25492.684     -26291.6    11.836975    69.818331   -185.24755    150.94014    41.082809    41.082809    82.165617 
   50100     770.5346   -25490.393   -26287.089    211.73396    30.144121    206.01792    399.03985    41.082809    41.082809    82.165664 
   50200     776.3893   -25485.284   -26288.033    169.68366    89.191969    21.015804     398.8432    41.082809    41.082809    82.165861 
   50300    781.11567   -25480.475   -26288.111    252.85411    157.82866    119.46376    481.26992    41.082809    41.082809    82.166272 
   50400    784.72837   -25475.573   -26286.944     284.7668    56.816643   -2.6936465    800.17741    41.082809    41.082809    82.166906 
   50500    782.76984   -25470.052   -26279.398    473.69565    533.75277    442.84273    444.49145    41.082809    41.082809    82.167828 
   50600    789.71914   -25464.266   -26280.798    539.39926    808.30237    119.83277    690.06264    41.082809    41.082809    82.169047 
   50700    789.37362   -25458.351   -26274.526    638.47613    884.50828    323.24748    707.67263    41.082809    41.082809    82.170652 
   50800    791.29429   -25452.319    -26270.48    778.17216    795.01502    627.47752    912.02395    41.082809    41.082809    82.172615 
   50900     793.8507   -25446.184   -26266.987     970.4357    908.05484     611.5728    1391.6795    41.082809    41.082809    82.175008 
   51000    799.66708   -25439.993    -26266.81     988.3605    700.85771    913.99898    1350.2248    41.082809    41.082809    82.177927 
   51100    796.84279   -25433.709   -26257.606    1246.4311    1094.9477    1127.9469    1516.3988    41.082809    41.082809    82.181401 
   51200    805.23073   -25427.381   -26259.951    1156.5433    1333.2104    992.91047    1143.5092    41.082809    41.082809    82.185474 
   51300    813.57989   -25420.994   -26262.197     1124.096    936.38978     1295.282    1140.6161    41.082809    41.082809    82.190109 
   51400    813.29867   -25414.585   -26255.497    1297.3124    1335.4347    866.62696    1689.8756    41.082809    41.082809    82.195327 
   51500    811.07004   -25408.055   -26246.662    1456.8748    1312.6687    1355.7856      1702.17    41.082809    41.082809    82.201224 
   51600    810.23463   -25401.581   -26239.324    1668.1651    1448.0358    1347.9548    2208.5047    41.082809    41.082809    82.207855 
   51700    819.12941    -25394.97   -26241.911    1618.1233    1629.0717    1354.2738    1871.0243    41.082809    41.082809    82.215283 
   51800    815.98678   -25388.409     -26232.1    1784.0381    1516.0681    1866.3598    1969.6866    41.082809    41.082809    82.223488 
   51900    827.04814   -25381.803   -26236.931    1686.9992    1771.3365    1229.1104    2060.5506    41.082809    41.082809     82.23254 
   52000    831.69648   -25375.146    -26235.08    1676.0031    1676.3578    1588.7567    1762.8949    41.082809    41.082809    82.242484 
   52100    827.07133   -25368.455   -26223.607    1904.8339    1661.6467    2051.6749      2001.18    41.082809    41.082809    82.253219 
   52200    832.15094   -25361.729   -26222.133    1929.1724    2101.7512    1560.0369     2125.729    41.082809    41.082809    82.264729 
   52300    842.19016   -25354.941   -26225.725    1771.7047    1784.0417    1784.5557    1746.5167    41.082809    41.082809     82.27705 
   52400    845.75383   -25348.145   -26222.613    1813.4271    1774.3197    1816.0356    1849.9259    41.082809    41.082809    82.290131 
   52500    841.60707    -25341.26   -26211.441    1960.9662    2341.2919    1950.8142    1590.7925    41.082809    41.082809    82.303867 
   52600    846.93473    -25334.39    -26210.08    2021.7999    2179.6623    1973.7005    1912.0368    41.082809    41.082809    82.318172 
   52700    844.23685   -25327.495   -26200.395    2128.3505    2285.8707    1584.1165    2515.0642    41.082809    41.082809    82.333182 
   52800    858.01109   -25320.565   -26207.707    1900.7566    2116.3999    1769.9865    1815.8834    41.082809    41.082809    82.349025 
   52900    862.28521   -25313.574   -26205.135     1857.037    1867.2617    1820.0151    1883.8341    41.082809    41.082809    82.365529 
   53000     859.8969   -25306.534   -26195.626    2012.2621    2090.2881    1790.9516    2155.5466    41.082809    41.082809    82.382764 
   53100    858.47513   -25299.528    -26187.15    2065.9616    2337.5934    1793.4896    2066.8017    41.082809    41.082809    82.400823 
   53200    869.96752   -25292.423   -26191.928    1934.7304    1991.7098    2004.3416    1808.1398    41.082809    41.082809    82.419553 
   53300    869.04626   -25285.279   -26183.831    2009.2797    1975.9393    2210.9411    1840.9586    41.082809    41.082809    82.438862 
   53400    872.59636   -25278.146   -26180.368    1885.1641    1752.2427    1718.8462    2184.4034    41.082809    41.082809    82.458764 
   53500    874.20239   -25270.949   -26174.833     1993.212    1956.9599     2041.039     1981.637    41.082809    41.082809     82.47932 
   53600    880.81234   -25263.723    -26174.44    1904.6522    1509.9792    2082.7713    2121.2062    41.082809    41.082809    82.500497 
   53700    880.52839   -25256.498   -26166.922    1914.4826    2152.4908    1983.5214    1607.4357    41.082809    41.082809    82.522331 
   53800    885.31772   -25249.202   -26164.578    1784.2576    2050.0026    1575.5649    1727.2052    41.082809    41.082809    82.544643 
   53900    883.05129   -25241.885   -26154.917     1943.602    1594.6762    2304.2525    1931.8773    41.082809    41.082809    82.567401 
   54000    898.41124   -25234.535   -26163.449    1538.4505    1837.8834    1668.8823    1108.5856    41.082809    41.082809    82.590583 
   54100    896.23378   -25227.135   -26153.798    1710.4932    1497.4766    1779.4637    1854.5393    41.082809    41.082809    82.614038 
   54200    897.09554   -25219.722   -26147.276    1736.3437    2068.5507    1659.5036    1480.9768    41.082809    41.082809    82.637839 
   54300    903.88274   -25212.266   -26146.838    1588.7569    1799.9492    1343.7463    1622.5752    41.082809    41.082809    82.661865 
   54400    904.84374   -25204.794   -26140.358    1548.2123    1770.2149      1905.22    969.20197    41.082809    41.082809    82.686216 
   54500    902.60506   -25197.249   -26130.499    1685.6763    2013.5909    1812.7986    1230.6393    41.082809    41.082809    82.710603 
   54600    909.70205   -25189.668   -26130.256    1611.7242    1732.3309    1790.4749    1312.3669    41.082809    41.082809    82.734913 
   54700    909.75637   -25182.063   -26122.707    1610.9536    1482.0345    1786.6867    1564.1395    41.082809    41.082809    82.759165 
[...]
  336300    784.92994   -25475.892   -26287.472   -286.19831    22.904695   -340.18343    -541.3162    41.086347    41.086347    82.221941 
  336400    781.36263   -25475.891   -26283.782   -152.98553   -159.46697   -135.87928   -163.61035    41.086471    41.086471      82.2194 
  336500     786.5457    -25475.89   -26289.141   -171.85876   -445.12733   -220.95765    150.50871      41.0865      41.0865    82.206259 
  336600    786.66268   -25475.891   -26289.262   -149.52954   -263.10634   -24.491873   -160.99039    41.086379    41.086379    82.198606 
  336700    781.87991   -25475.889   -26284.315   -38.562987    234.86979   -165.49592   -185.06283    41.086247    41.086247    82.201869 
  336800    776.08353   -25475.887   -26278.321     150.0008   -616.07425    949.85797    116.21866     41.08612     41.08612    82.199289 
  336900    776.12489   -25475.889   -26278.365    10.839581    70.058108    -279.5194    241.98003    41.085959    41.085959    82.204855 
  337000    772.82019    -25475.89   -26274.949    125.41995    150.17459   -444.36108    670.44633    41.085737    41.085737    82.220656 
  337100    786.23246   -25475.893    -26288.82   -424.34632   -406.78687   -530.03075   -336.22133    41.085406    41.085406     82.25038 
  337200    779.13526   -25475.892    -26281.48   -240.57939   -311.03902   -24.579644   -386.11951    41.084889    41.084889     82.24413 
  337300    786.24138     -25475.9   -26288.836   -148.72199   -77.688104   -283.99267    -84.48518    41.084247    41.084247    82.216838 
  337400    782.01216   -25475.895   -26284.458    124.97644    32.782465    316.46999    25.676862    41.083619    41.083619    82.199259 
  337500    775.19278     -25475.9   -26277.412     544.3646    749.83723    179.59876     703.6578    41.083183    41.083183    82.165295 
  337600    777.26216   -25475.899   -26279.551    512.77688    568.35726    505.63519    464.33818    41.083077    41.083077    82.174081 
  337700    786.85809     -25475.9   -26289.473   -55.959181   -84.682997    119.60082   -202.79536    41.083191    41.083191    82.207244 
  337800    785.27052   -25475.896   -26287.828   -162.77376   -315.74938    201.02461   -373.59651    41.083341    41.083341    82.220396 
  337900     781.3899   -25475.898   -26283.817    69.821777   -10.322448    159.58245    60.205329    41.083479    41.083479    82.208732 
  338000     785.4393     -25475.9   -26288.007   -75.371973    172.42031   -519.38779    120.85157    41.083628    41.083628    82.213204 
  338100    782.57968     -25475.9    -26285.05    97.794824   -142.25411    110.24513    325.39345     41.08378     41.08378    82.201241 
  338200       778.42   -25475.896   -26280.745    305.85882    245.19486    499.81363    172.56797    41.084012    41.084012    82.192096 
  338300    785.20466   -25475.901   -26287.765    -17.51221    290.24549   -380.96162    38.179498    41.084361    41.084361    82.206967 
  338400    786.15909   -25475.901   -26288.752   -211.52495    81.324503   -428.63722   -287.26213    41.084704    41.084704    82.217277 
  338500    779.62472   -25475.898   -26281.993    58.803945     21.10436    145.32102    9.9864517     41.08496     41.08496    82.208075 
  338600    783.84159   -25475.899   -26286.354   -59.349369    273.69516   -252.31593   -199.42733    41.085211    41.085211    82.201368 
  338700    782.84471   -25475.901   -26285.325    81.671837   -156.93807    411.27967   -9.3260926    41.085469    41.085469    82.185575 
  338800    791.83323   -25475.908   -26294.626    27.285572    244.57926     25.74277   -188.46531    41.085788    41.085788    82.170348 
  338900    773.72246   -25475.899   -26275.891    496.75782    551.05888    619.62416    319.59041    41.086252    41.086252    82.166835 
  339000    785.56509   -25475.901   -26288.138    107.39036    364.54661    39.488273   -81.863805    41.086899    41.086899    82.177933 
  339100    789.97319   -25475.906     -26292.7   -27.833537   -450.19158    24.220677    342.47029    41.087617    41.087617    82.180318 
  339200    784.33586   -25475.904    -26286.87   -120.10312   -333.05574     48.18929    -75.44291    41.088255    41.088255    82.199516 
  339300    780.63484   -25475.903   -26283.042   -33.994524   -400.00318    342.25416   -44.234552     41.08874     41.08874    82.203417 
  339400    786.26207   -25475.905   -26288.862   -195.71132    83.399415   -176.57397   -493.95941    41.089106    41.089106    82.196495 
  339500    786.08637   -25475.904   -26288.679    46.775176   -286.44766    114.64771    312.12548    41.089407    41.089407    82.173465 
  339600    781.77731   -25475.901   -26284.222    37.774203    193.64754   -42.906334   -37.418596    41.089707    41.089707    82.172396 
  339700    794.07338    -25475.91   -26296.943   -226.44297   -339.55544   -482.98265    143.20918    41.090037    41.090037    82.177005 
  339800    772.34186   -25475.904   -26274.468    81.004795    134.03663    206.16442   -97.186671    41.090278    41.090278    82.199745 
  339900    774.09788     -25475.9    -26276.28    54.556523    -360.4123    312.84858    211.23329    41.090454    41.090454    82.206804 
  340000    788.60001   -25475.911   -26291.285   -457.02579   -361.54048   -555.52974   -454.00716    41.090434    41.090434    82.211603 
  340100    791.29735   -25475.908   -26294.072   -269.33662   -185.21412   -188.64682   -434.14892    41.090294    41.090294     82.19137 
  340200    788.98022   -25475.908   -26291.676   -97.714633   -155.34208   -123.21522   -14.586597    41.090142    41.090142    82.172146 
  340300    789.92427   -25475.916    -26292.66    35.718902    746.69149   -22.618637   -616.91615    41.090084    41.090084    82.154051 
  340400    784.01963   -25475.907   -26286.546    386.80468    427.25925    245.83216    487.32264    41.090289    41.090289    82.130429 
  340500    780.81448   -25475.911   -26283.236    214.08083    360.16802    243.86973    38.204736     41.09066     41.09066    82.157149 
  340600    790.85511   -25475.913   -26293.619   -228.47941    41.638195    209.77536   -936.85178    41.091154    41.091154    82.187816 
  340700    780.06265   -25475.909   -26282.456     142.0112   -141.59602    165.72675    401.90288    41.091672    41.091672    82.169983 
  340800    779.01996   -25475.914   -26281.383    236.34435    185.15429    258.72359    265.15518    41.092151    41.092151    82.148305 
  340900    784.24008    -25475.91   -26286.777     270.3213    129.27253    435.24625    246.44511    41.092691    41.092691    82.137192 
  341000    786.06622   -25475.918   -26288.673    21.378998   -397.77911    319.46192    142.45419    41.093285    41.093285    82.159422 
  341100      782.728   -25475.915   -26285.218   -71.751212    70.905112    20.250442   -306.40919    41.093871    41.093871    82.175788 
  341200    780.25901   -25475.914   -26282.665     -27.2479   -689.48872     212.4275    395.31752    41.094425    41.094425    82.169687 
  341300    780.67398   -25475.916   -26283.095    41.032293    237.69981    76.562716   -191.16565    41.094859    41.094859    82.166687 
  341400    779.85349   -25475.912   -26282.243    157.81782    83.831296    41.626196    347.99596    41.095282    41.095282    82.148422 
  341500    772.05894   -25475.916   -26274.188    202.60189    20.714749    239.31478    347.77615    41.095648    41.095648    82.150674 
  341600    778.63436   -25475.914   -26280.985    72.196406    175.84133      312.058    -271.3101    41.096007    41.096007    82.173498 
  341700    787.79637   -25475.919   -26290.463   -363.30805   -565.15925   -229.66013   -295.10477    41.096301    41.096301    82.183257 
  341800     783.2166   -25475.935   -26285.743    38.930565    176.93752      16.7304   -76.876222     41.09644     41.09644    82.152369 
  341900    782.35349    -25475.93   -26284.846    553.11189    593.97028     771.0186     294.3468    41.096683    41.096683    82.092981 
  342000    776.82628   -25475.925   -26279.126    796.47868    983.37504    636.52001    769.54099    41.097244    41.097244    82.071394 
  342100    781.72797   -25475.952   -26284.221    120.64423     115.8904      192.265    53.777278    41.098115    41.098115    82.126465 
  342200    774.66252   -25475.934   -26276.898   -33.027767   -82.527654   -87.587803    71.032155    41.099001    41.099001     82.18049 
  342300    767.63844   -25475.928   -26269.629    -33.24529   -228.81282   -156.94349    286.02044     41.09962     41.09962     82.19231 
  342400    774.25389   -25475.932   -26276.474   -78.228187    120.86346   -466.79893    111.25092    41.099909    41.099909    82.181863 
  342500    789.13875    -25475.95   -26291.881   -155.87481    37.434599   -283.62994    -221.4291    41.099988    41.099988    82.144761 
  342600    779.69255   -25475.938   -26282.103    449.17942    338.30583    410.54974    598.68269    41.100032    41.100032    82.104768 
  342700    781.52072   -25475.936   -26283.991    218.12664   -131.13851    731.04178    54.476641    41.100276    41.100276    82.114321 
  342800    778.31492   -25475.939   -26280.679    234.90483    440.50296    64.200647    200.01088    41.100698    41.100698    82.122835 
  342900    783.55137   -25475.937   -26286.091    -47.99643    26.443996   -150.84774    -19.58555    41.101198    41.101198    82.137004 
  343000    774.91503   -25475.937   -26277.162    125.03067    149.02127    36.752793    189.31793    41.101618    41.101618      82.1519 
  343100    780.25106   -25475.943   -26282.685   -212.00613   -261.30153   -151.34633   -223.37053    41.101863    41.101863    82.170652 
  343200    775.38758   -25475.937    -26277.65   -99.752718   -98.815638   -224.14998    23.707464     41.10193     41.10193    82.167591 
  343300    787.69079   -25475.946   -26290.381   -196.70014    55.425814   -322.46734   -323.05888     41.10183     41.10183    82.145419 
  343400     791.8347   -25475.949   -26294.668   -9.8105613      88.7851   -65.676544    -52.54024    41.101736    41.101736    82.108596 
  343500    772.85286   -25475.936   -26275.029    598.55474    800.75946    339.10765    655.79711    41.101799    41.101799    82.092337 
  343600     780.7616   -25475.943   -26283.213    145.10737    617.84613    84.572117   -267.09614    41.102039    41.102039    82.114099 
  343700    779.89881   -25475.944   -26282.322    141.61855    93.633511    142.55484    188.66729    41.102371    41.102371    82.130981 
  343800    782.91743   -25475.943   -26285.442   -107.44655    230.74876   -379.36073   -173.72768    41.102674    41.102674    82.146254 
  343900    783.23945   -25475.944   -26285.776    25.633293    111.30251    19.189186   -53.591818    41.102908    41.102908    82.138284 
  344000    777.84276    -25475.94   -26280.192    232.78784    550.76863   -63.348483    210.94336    41.103165    41.103165     82.12618 
  344100    783.61734   -25475.944   -26286.167    61.594146    101.05798    -181.7344    265.45886    41.103477    41.103477    82.116504 
  344200    785.78061   -25475.946   -26288.405   -66.177641    357.42028   -459.56375   -96.389453    41.103781    41.103781    82.125857 
  344300    774.44222   -25475.941   -26276.677    75.662908    168.24874   -59.436876    118.17685    41.104027    41.104027     82.14483 
  344400    787.05186   -25475.946   -26289.719   -344.12747   -368.89663   -90.196098   -573.28969    41.104173    41.104173    82.161231 
  344500    789.38015   -25475.954   -26292.135    -311.0009   -300.35114   -453.72204   -178.92953    41.104175    41.104175    82.138311 
  344600    780.17467   -25475.952   -26282.615    290.79192   -172.44232    752.63268    292.18541     41.10415     41.10415    82.099383 
  344700    787.73525   -25475.953   -26290.434    342.00448     295.6851    394.57684     335.7515     41.10431     41.10431    82.065886 
  344800    785.40703   -25475.955   -26288.028     326.3388    695.90474   -226.58334    509.69499     41.10479     41.10479    82.068477 
  344900    775.81819   -25475.961    -26278.12    191.78826    24.460424    406.65294    144.25141    41.105397    41.105397    82.114438 
  345000    785.57779   -25475.968   -26288.218   -478.45822    -700.1454   -418.26503   -316.96423    41.105916    41.105916    82.171072 
  345100    777.34132   -25475.958   -26279.691   -392.72623   -399.42075   -220.78847   -557.96948    41.106113    41.106113    82.184639 
  345200    785.30076   -25475.976   -26287.939   -217.23258   -735.13967   -5.9416628    89.383599    41.106058    41.106058    82.131673 
  345300    787.08947   -25475.964   -26289.776    154.49129    182.34675   -307.42179    588.54892    41.105886    41.105886    82.090647 
  345400    787.50627   -25475.966   -26290.209    75.650617   -258.18724    41.552081    443.58701    41.105816    41.105816    82.101158 
  345500    780.83722   -25475.969   -26283.317   -112.07168    37.867375   -115.97847   -258.10395    41.105823    41.105823    82.134836 
  345600    789.37689   -25475.971   -26292.148   -360.67563   -783.81062   -70.629971   -227.58632    41.105837    41.105837    82.144676 
  345700    782.16837   -25475.963   -26284.688   -79.409553   -253.89566   -215.66854    231.33554     41.10571     41.10571    82.139951 
  345800    780.07178   -25475.962   -26282.519   -2.2023389   -36.722608   -282.87869    312.99428    41.105441    41.105441    82.129283 
  345900    778.03438   -25475.966   -26280.416   -23.394342    29.280977   -71.009366   -28.454638    41.105073    41.105073    82.142307 
  346000    794.08596   -25475.969   -26297.015   -538.16683   -507.54194   -781.39109   -325.56747    41.104646    41.104646    82.156833 
  346100    775.06125   -25475.964    -26277.34    32.282776    195.53033   -237.83858    139.15658    41.104057    41.104057    82.148848 
  346200    781.00572   -25475.968   -26283.491   -89.377015   -267.20053    633.92592   -634.85644    41.103456    41.103456    82.142378 
  346300      777.463   -25475.968   -26279.827    177.49649    579.60385   -92.523772    45.409411    41.102952    41.102952    82.116099 
  346400    788.63749   -25475.971   -26291.384     196.0838     554.6689    37.256488   -3.6739819    41.102578    41.102578    82.098851 
  346500    782.91248   -25475.984   -26285.478    64.121895     101.8311   -145.61142    236.14601     41.10239     41.10239    82.117902 
  346600    781.98148   -25475.978   -26284.509   -247.52969   -426.53927   -203.01302   -113.03678     41.10225     41.10225     82.16674 
  346700    786.98142   -25475.977   -26289.678   -541.88572   -399.51963   -605.95582    -620.1817    41.101975    41.101975    82.190802 
  346800    786.26515   -25475.987   -26288.947   -237.61708   -471.63346   -81.486668   -159.73111    41.101528    41.101528     82.16447 
  346900    774.37869   -25475.978   -26276.649    400.61376    538.81102    31.121663    631.90858    41.100965    41.100965    82.118905 
  347000    785.80572   -25475.983   -26288.468    78.159819     96.89677   -298.29886    435.88154     41.10052     41.10052    82.123397 
  347100      779.087   -25475.992   -26281.531   -208.26475   -175.17671   -318.26462   -131.35293     41.10009     41.10009    82.176894 
  347200    775.28223   -25475.979   -26277.584   -404.88698   -123.88652   -735.02992    -355.7445    41.099499    41.099499    82.208025 
  347300    784.69897   -25476.006   -26287.347   -318.04931   -363.07647   -598.74312    7.6716583    41.098675    41.098675    82.176473 
  347400    779.22677   -25475.992   -26281.675    187.77706   -122.58179    43.685411    642.22756    41.097763    41.097763    82.127557 
  347500    777.11262   -25475.998   -26279.495    199.54058   -13.713607    -331.7738    944.10915    41.096933    41.096933    82.140571 
  347600    777.07877   -25476.012   -26279.474   -301.49492   -803.09998    124.96821   -226.35298    41.096122    41.096122    82.205148 
  347700    781.79187   -25476.002   -26284.337   -621.26978   -619.99509   -863.03375   -380.78049    41.095165    41.095165    82.244088 
  347800    786.05056   -25476.027   -26288.766   -567.06825   -819.11242   -309.84491   -572.24743    41.093905    41.093905    82.221009 
  347900    783.61259   -25476.044   -26286.261    157.03688    -40.74157    181.64027    330.21194    41.092575    41.092575    82.144763 
  348000    783.99026   -25476.019   -26286.627    479.92636    75.047671    601.74265    762.98877    41.091518    41.091518    82.117934 
  348100     780.9686   -25476.048   -26283.532    71.798395    191.41339    -118.7594    142.74119    41.090757    41.090757    82.174831 
  348200    779.35202   -25476.053   -26281.865   -496.55012   -704.78325   -405.65419   -379.21293    41.090073    41.090073    82.258699 
  348300    779.27728   -25476.035    -26281.77   -732.34797   -611.66276   -1175.8641   -409.51706    41.089141    41.089141     82.28561 
  348400    775.90607   -25476.068   -26278.317   -171.54033   -615.99638    90.178398    11.196985    41.087872    41.087872    82.226675 
  348500    778.16391   -25476.051   -26280.635    359.68918    437.02521    113.97561    528.06672    41.086543    41.086543    82.168826 
  348600    790.71199   -25476.053   -26293.611    62.604676    23.010868    118.40022    46.402935    41.085459    41.085459    82.164609 
  348700    782.83142   -25476.077   -26285.487   -65.797299   -261.26171    63.447279   0.42253219    41.084623    41.084623    82.211916 
  348800    787.22801   -25476.054    -26290.01   -554.63692   -378.34663   -742.58971   -542.97442    41.083871    41.083871    82.256101 
  348900    774.39451   -25476.053    -26276.74   -153.69574   -255.28284   -26.502824   -179.30154    41.083012    41.083012    82.247536 
  349000     782.0017   -25476.059   -26284.611    79.807197   -248.13039    128.30616    359.24583    41.082156    41.082156    82.217496 
  349100    774.54854   -25476.058   -26276.904    359.68338    511.22162    219.40177    348.42674     41.08135     41.08135    82.196448 
  349200    779.11981   -25476.059   -26281.631    235.33172     313.6498     50.57903    341.76634     41.08077     41.08077    82.202557 
  349300    790.57334   -25476.064   -26293.478   -236.48914   -382.68721   -8.0675663   -318.71263    41.080357    41.080357    82.223032 
  349400    775.73283   -25476.061   -26278.131    216.74796    228.88716    337.78813    83.568605    41.079999    41.079999    82.223231 
  349500    792.83557   -25476.066    -26295.82    -145.6598   -384.19667   -137.08981    84.307082    41.079755    41.079755    82.212775 
  349600    780.41707   -25476.058   -26282.972    139.57246    234.23828   -50.714869    235.19397    41.079518    41.079518    82.215197 
  349700    786.56438   -25476.061   -26289.331   -255.36421   -182.01148   -261.05855    -323.0226     41.07931     41.07931    82.239718 
  349800    776.88246   -25476.061    -26279.32    127.28682    37.425836    -86.98804    431.42266     41.07911     41.07911     82.22837 
  349900    780.65778    -25476.06   -26283.222    206.85032    383.08352    354.54463    -117.0772    41.078949    41.078949    82.211503 
  350000    788.50529    -25476.07   -26291.347    240.14279    223.99603    423.00858    73.423764     41.07897     41.07897     82.17866 
Loop time of 5906.67 on 1 procs for 200000 steps with 8000 atoms

Pair  time (%) = 5354.09 (90.6448)
Neigh time (%) = 396.412 (6.71126)
Comm  time (%) = 32.6354 (0.552518)
Outpt time (%) = 2.52062 (0.0426741)
Other time (%) = 121.014 (2.04877)

Nlocal:    8000 ave 8000 max 8000 min
Histogram: 1 0 0 0 0 0 0 0 0 0
Nghost:    8029 ave 8029 max 8029 min
Histogram: 1 0 0 0 0 0 0 0 0 0
Neighs:    301439 ave 301439 max 301439 min
Histogram: 1 0 0 0 0 0 0 0 0 0

Total # of neighbors = 301439
Ave neighs/atom = 37.6799
Neighbor list builds = 20000
Dangerous builds = 0
unfix		4
