LAMMPS (13 Jan 2014)
dimension       3
boundary        p p p
units           metal

atom_style	atomic
neighbor	0.3 bin
neigh_modify	every 10 delay 0 check no

# Number of steps for the equilibration steps
variable        eqsteps equal 50000

# Number of steps to run our NPH simulation
variable        simsteps equal 200000

# Our trial melting temperature
variable	T equal 1350.0
variable	T2 equal 2*${T}
variable	T2 equal 2*1350

# Some high temperature to melt the crystal
variable	Tmelt equal 2000.0

#System size
variable	nx equal 10
variable	ny equal 10
variable	nz equal 20
variable	nzhalf equal ${nz}*0.5
variable	nzhalf equal 20*0.5
variable	a equal 4.050
variable	length equal ${nz}*${a}
variable	length equal 20*${a}
variable	length equal 20*4.05

lattice		fcc ${a}
lattice		fcc 4.05
Lattice spacing in x,y,z = 4.05 4.05 4.05

region         box block 0 ${nx} 0 ${ny} 0 ${nz}
region         box block 0 10 0 ${ny} 0 ${nz}
region         box block 0 10 0 10 0 ${nz}
region         box block 0 10 0 10 0 20
create_box     1 box
Created orthogonal box = (0 0 0) to (40.5 40.5 81)
  1 by 1 by 1 MPI processor grid
create_atoms   1 box
Created 8000 atoms

mass		1 26.9815

pair_style	eam/alloy
pair_coeff	* * Al_potential.alloy Al

velocity	all create ${T2} 1337
velocity	all create 2700 1337

# Create a dump file. This can be visualized with
# e.g. OVITO (http://www.ovito.org/)
dump		id all atom 1000 atomsdump

# 1 fs timestep
timestep	0.001
thermo_style	custom step temp etotal pe press pxx pyy pzz lx ly lz

# output every 100th timestep
thermo		100

# Equilibration the whole system to the trial melting temperature
fix		1 all npt temp ${T} ${T} 1 iso 0 0 3 drag 1.0
fix		1 all npt temp 1350 ${T} 1 iso 0 0 3 drag 1.0
fix		1 all npt temp 1350 1350 1 iso 0 0 3 drag 1.0
run		${eqsteps}
run		50000
Memory usage per processor = 5.95314 Mbytes
Step Temp TotEng PotEng Press Pxx Pyy Pzz Lx Ly Lz 
       0         2700   -24385.582   -27177.252    18379.635    18175.678     18154.58    18808.647         40.5         40.5           81 
     100    1254.4242   -24416.132   -25713.146    46967.971    47364.781    47250.774    46288.358    40.591945    40.591945     81.18389 
     200    1256.4296   -24470.228   -25769.316    33498.638    34402.999    33437.173    32655.742    40.816885    40.816885    81.633771 
     300    1222.5893   -24501.586   -25765.685     23626.47     24299.05    23158.446    23421.914    41.009305    41.009305    82.018611 
     400    1220.5582   -24516.142    -25778.14    15797.767    16187.929    15088.686    16116.687    41.161186    41.161186    82.322371 
     500     1205.941   -24521.336   -25768.221    9563.3187    10028.268    9034.2535    9627.4342    41.292794    41.292794    82.585587 
     600    1179.2301   -24520.512    -25739.78    5395.6116    5889.9738    5320.4656    4976.3954    41.399003    41.399003    82.798006 
     700    1185.2179   -24516.087   -25741.545    1711.9909    1659.7464    1703.4509    1772.7754    41.477877    41.477877    82.955755 
     800    1171.9224   -24510.243   -25721.954   -346.72681      93.7386   -64.856071    -1069.063    41.531811    41.531811    83.063622 
     900    1161.3191   -24504.097   -25704.845   -1267.4306   -1335.7185   -1324.4896   -1142.0836    41.565694    41.565694    83.131387 
    1000    1176.3143   -24497.901   -25714.154   -2324.7875   -1839.4806   -3458.9219   -1675.9601     41.58307     41.58307    83.166141 
    1100     1157.587   -24491.794   -25688.683   -1791.3504   -2094.0963   -2031.5543   -1248.4006    41.587345    41.587345    83.174691 
    1200    1182.1912   -24485.697   -25708.025   -2257.4619   -2097.8574   -2371.4106   -2303.1178    41.582299    41.582299    83.164597 
    1300    1169.5314   -24479.541    -25688.78   -1132.5269   -1681.7618   -861.25085   -854.56814    41.570841    41.570841    83.141682 
    1400    1186.5742   -24473.284   -25700.145   -517.65824   -295.30771    -858.2152   -399.45182    41.557098    41.557098    83.114196 
    1500    1194.2607   -24466.918   -25701.726   -82.888415   -696.97148    208.63096    239.67527    41.544554    41.544554    83.089108 
    1600    1186.1813   -24460.548   -25687.003    832.17212    915.02637    999.50275    581.98723    41.535212    41.535212    83.070424 
    1700    1196.8058   -24454.284   -25691.724    989.49379    776.23542    980.62515    1211.6208    41.530115    41.530115    83.060229 
    1800     1194.228   -24448.136    -25682.91    1180.1014    632.73736    1034.9972    1872.5697    41.529999    41.529999    83.059999 
    1900    1187.9101   -24442.073   -25670.315    1313.9847     922.6778    896.15059    2123.1256    41.534354    41.534354    83.068708 
    2000    1197.5715   -24436.053   -25674.284    907.91963    328.48736    1065.8229    1329.4486    41.542895    41.542895     83.08579 
    2100    1208.4806   -24430.007   -25679.517    336.58799   -162.38891    254.26672    917.88616    41.553666    41.553666    83.107332 
    2200    1199.4318   -24424.006   -25664.161    377.89306   -344.99977    541.97013    936.70883    41.564413    41.564413    83.128826 
    2300    1201.8068   -24418.069    -25660.68    60.127358   -36.614515   -4.4090918    221.40568    41.574458    41.574458    83.148917 
    2400    1209.3611   -24412.114   -25662.535   -316.86629   -287.74289   -213.66282   -449.19316     41.58293     41.58293     83.16586 
    2500    1212.5728   -24406.174   -25659.916   -720.60637   -543.31867   -656.88498   -961.61545    41.588941    41.588941    83.177882 
    2600    1223.0735    -24400.27   -25664.869   -938.33962   -696.89593   -1478.7236    -639.3993    41.591948    41.591948    83.183895 
    2700    1219.2841   -24394.473   -25655.155   -597.02068   -1175.6866   -575.75205    -39.62343    41.591853    41.591853    83.183707 
    2800    1200.9862   -24388.772   -25630.534    251.02149    397.47901    427.90669   -72.321223    41.590138    41.590138    83.180276 
    2900    1215.3774   -24382.935   -25639.577   -150.45828   -132.85591   -620.20552    301.68661     41.58887     41.58887    83.177741 
    3000    1223.3197   -24377.173   -25642.026    45.980845   -451.44754    464.66563    124.72445    41.587304    41.587304    83.174608 
    3100    1207.8384   -24371.574   -25620.421    642.33143    126.96191    993.52018     806.5122    41.586283    41.586283    83.172566 
    3200    1219.0473   -24365.929   -25626.365    358.06708    24.579123    378.26767    671.35444    41.587575    41.587575    83.175149 
    3300    1237.1128   -24360.319   -25639.434   -30.076607   -821.56765    897.14674   -165.80891    41.590509    41.590509    83.181019 
    3400    1229.8206   -24354.808   -25626.383    107.20588   -451.31217    145.23099    627.69881    41.594334    41.594334    83.188667 
    3500    1233.8379   -24349.343   -25625.072   -45.488874   -310.09717    31.441984    142.18857    41.599154    41.599154    83.198308 
    3600    1226.3653    -24343.91   -25611.913    70.504608   -386.17223    125.78187    471.90419    41.604164    41.604164    83.208327 
    3700    1253.1514   -24338.563   -25634.261   -523.07313    -614.5768   -691.11354   -263.52906    41.609081    41.609081    83.218161 
    3800    1212.6715   -24333.275   -25587.119    417.35269    934.50547   -107.67974    425.23234    41.613471    41.613471    83.226942 
    3900    1225.5203    -24327.86   -25594.989         82.2   -29.506492   -438.02219    714.12868    41.618527    41.618527    83.237055 
    4000     1229.018   -24322.392   -25593.138   -78.769397   -67.634037    -119.6693   -49.004853    41.623796    41.623796    83.247593 
    4100    1241.9129   -24316.928   -25601.006    -415.0088    279.18001   -822.82312    -701.3833    41.628648    41.628648    83.257295 
    4200    1239.8657   -24311.656   -25593.618   -320.43561   -400.71675     -683.902    123.31192    41.631986    41.631986    83.263972 
    4300    1234.8974   -24306.443   -25583.267   -367.99991   -339.28094   -96.828983   -667.88982    41.633914    41.633914    83.267829 
    4400     1254.173   -24301.312   -25598.067   -351.24722   -130.81011   -588.31674    -334.6148    41.634204    41.634204    83.268408 
    4500    1227.4066   -24296.271   -25565.351    463.15809   -87.582108    312.98999    1164.0664    41.633514    41.633514    83.267029 
    4600    1252.7713   -24291.249   -25586.555   -120.72496   -254.10521    169.65465   -277.72433    41.633441    41.633441    83.266883 
    4700    1245.8271    -24286.23   -25574.355     287.6268    215.93663    212.21961    434.72418    41.633887    41.633887    83.267774 
    4800    1244.5025    -24281.26   -25568.016    161.55112   -58.423643    164.20206    378.87495    41.635277    41.635277    83.270554 
    4900    1250.7147   -24276.352   -25569.531    224.52013   -144.50272    16.985031    801.07808    41.637361    41.637361    83.274721 
    5000    1252.1608   -24271.473   -25566.147    289.50348    106.45288   -220.72964    982.78721    41.640143    41.640143    83.280285 
    5100     1250.174   -24266.663   -25559.283    307.32885   -112.07049    273.96771    760.08932    41.643503    41.643503    83.287007 
    5200    1268.2089   -24261.882   -25573.149    -401.6766   -122.96544   -642.29101   -439.77334    41.648066    41.648066    83.296133 
    5300    1260.1045   -24257.148   -25560.035   -1.6267696    518.19716   -487.25488   -35.822585    41.652277    41.652277    83.304554 
    5400    1262.8647   -24252.533   -25558.274   -342.55467   -637.61889    -387.5123   -2.5328106    41.656311    41.656311    83.312623 
    5500    1261.8134   -24247.906    -25552.56   -75.807092   -739.78436    1129.4876   -617.12452    41.660171    41.660171    83.320342 
    5600    1269.6429   -24243.353   -25556.103   -342.05201   -800.39493   -439.04252    213.28141    41.663345    41.663345    83.326691 
    5700    1267.7796   -24238.906   -25549.729   -262.17275   -1056.5256     1353.039   -1083.0317    41.665051    41.665051    83.330102 
    5800    1260.0358   -24234.537   -25537.354    84.042884    150.53626    396.75269    -295.1603    41.665556    41.665556    83.331112 
    5900    1266.6841   -24230.125   -25539.816    162.19647    98.872176    137.02686    250.69036    41.665645    41.665645     83.33129 
    6000    1264.5653    -24225.72    -25533.22    144.01527    524.08554   -830.21908    738.17935    41.666005    41.666005     83.33201 
    6100    1258.1917   -24221.368   -25522.278    364.32601    514.11583   -2.1431911    581.00538     41.66654     41.66654    83.333081 
    6200    1286.1099   -24217.101   -25546.877   -223.77356   -1428.2504    349.14053     407.7892    41.666983    41.666983    83.333965 
    6300    1264.7134   -24212.971   -25520.624     628.8891    758.51641    432.20761    695.94329    41.667517    41.667517    83.335035 
    6400    1280.6094   -24208.784   -25532.872    134.76138   -138.70677    452.18236    90.808544    41.669964    41.669964    83.339928 
    6500    1279.3926   -24204.597   -25527.427    170.34998    164.04055   -1188.3745    1535.3839    41.673619    41.673619    83.347239 
    6600    1272.4823   -24200.494    -25516.18    252.53709    20.768115    169.04387    567.79927    41.678065    41.678065     83.35613 
    6700    1279.6061   -24196.354   -25519.405     -36.9376    368.06756   -192.92405   -285.95631    41.683345    41.683345     83.36669 
    6800    1276.5792   -24192.243   -25512.164   -43.191048    328.06212   -139.50761   -318.12765    41.688868    41.688868    83.377736 
    6900    1266.7579   -24188.136   -25497.903    117.46644   -351.55766    435.69367    268.26332    41.694104    41.694104    83.388207 
    7000    1269.0462   -24184.032   -25496.164   -26.900151    6.9716382    156.29939   -243.97148    41.698752    41.698752    83.397504 
    7100    1275.3034   -24179.943   -25498.546   -298.57017    -65.03504   -563.85915   -266.81631    41.702159    41.702159    83.404319 
    7200    1266.4101   -24175.861   -25485.268   -76.331693   -498.83004    133.99253    135.84244    41.704434    41.704434    83.408867 
    7300    1270.1757   -24171.699   -25484.999    23.276145    257.60343    79.424674   -267.19967    41.705879    41.705879    83.411759 
    7400    1268.7587   -24167.583   -25479.418    209.21295    221.82115    717.17578   -311.35809    41.706756    41.706756    83.413512 
    7500    1284.6102   -24163.418   -25491.643   -141.55248   -18.402885   -557.28885    151.03429     41.70803     41.70803     83.41606 
    7600    1272.0234   -24159.375   -25474.586    137.77248     705.3866   -1174.8318    882.76263    41.708775    41.708775    83.417549 
    7700    1272.5065   -24155.419    -25471.13    266.67642    217.95758    717.76094   -135.68925    41.709361    41.709361    83.418721 
    7800    1277.0798   -24151.509   -25471.948    219.57117     409.3429    38.902635    210.46798    41.710143    41.710143    83.420287 
    7900    1274.1596   -24147.679   -25465.099    501.89832    149.50832    497.40177    858.78486    41.711139    41.711139    83.422278 
    8000    1283.1227   -24143.894   -25470.581    176.89188   -112.50285    914.59769   -271.41919    41.713225    41.713225     83.42645 
    8100    1264.7885   -24140.103   -25447.834      655.596    514.83774    1129.7828     322.1675    41.715706    41.715706    83.431411 
    8200    1300.8938   -24136.398    -25481.46    -435.6526   -343.08347   -378.28539   -585.58894    41.718142    41.718142    83.436285 
    8300     1297.844   -24132.808   -25474.716   -1.8363997   -15.925629    240.89566   -230.47923    41.719985    41.719985     83.43997 
    8400     1276.302   -24129.338   -25448.973    606.47218    611.96354    325.13277    882.32023    41.722176    41.722176    83.444351 
    8500    1292.5791     -24125.8   -25462.265    81.065254    115.05033   -330.36143    458.50687    41.725813    41.725813    83.451626 
    8600    1289.4308   -24122.247   -25455.457   -37.950296   -286.40234   -23.824935    196.37639    41.729631    41.729631    83.459263 
    8700    1291.4627   -24118.739    -25454.05   -226.56995   -216.16838   -372.06155   -91.479899    41.732867    41.732867    83.465735 
    8800    1286.4311   -24115.217   -25445.324    25.651315     306.9787   -714.87581    484.85106    41.735264    41.735264    83.470527 
    8900     1296.709   -24111.628   -25452.362   -231.84401    177.93324   -877.81919    4.3539276    41.737414    41.737414    83.474829 
    9000    1296.7838   -24108.029   -25448.841    -197.9122    262.72117   -7.2366374   -849.22113     41.73916     41.73916    83.478319 
    9100    1277.8922   -24104.447   -25425.726    552.81106    1648.8346    478.65528   -469.05665    41.740825    41.740825     83.48165 
    9200    1296.3318   -24100.833   -25441.178   -15.554094    514.22653    150.01484   -710.90366    41.743211    41.743211    83.486423 
    9300     1287.715   -24097.274    -25428.71    200.87358    447.86147    85.654518    69.104754    41.745384    41.745384    83.490768 
    9400    1281.7343   -24093.775   -25419.026    272.34063    380.46212     701.5197   -264.95994    41.747585    41.747585     83.49517 
    9500    1291.9856   -24090.256   -25426.107    29.615696    472.97861   -374.44108    -9.690444    41.750366    41.750366    83.500732 
    9600    1299.3741   -24086.764   -25430.254    49.941297    453.57179    408.40614   -712.15404    41.753379    41.753379    83.506759 
    9700    1298.4166    -24083.32   -25425.821   -125.31064   -166.31517   -962.89588    753.27912    41.756195    41.756195    83.512391 
    9800      1302.19   -24079.932   -25426.334   -68.357539   -204.18011   -597.71428    596.82177    41.758579    41.758579    83.517158 
    9900    1291.0413   -24076.629   -25411.504     194.2721   -224.19234    731.04657    75.962088    41.760452    41.760452    83.520904 
   10000    1270.0572    -24073.32   -25386.498    578.57236    755.75169    65.645951    914.31943    41.762194    41.762194    83.524388 
   10100    1293.0255   -24069.886   -25406.813   -60.496602    -435.6617    1092.0221   -837.85022    41.764417    41.764417    83.528833 
   10200     1306.045   -24066.438   -25416.825   -389.53392   -468.67976    62.294292   -762.21629    41.766693    41.766693    83.533385 
   10300    1289.7013   -24062.949   -25396.438    135.87336     327.9516   -976.63696    1056.3054    41.769114    41.769114    83.538228 
   10400    1294.1219     -24059.4    -25397.46   -65.407534   -204.89937    266.94446   -258.26769    41.771837    41.771837    83.543673 
   10500    1293.4541   -24055.827   -25393.197   -93.015214    -795.5226    747.20859   -230.73162    41.774796    41.774796    83.549593 
   10600    1276.8021   -24052.279    -25372.43    337.13639     562.3656    -290.5203    739.56389    41.777754    41.777754    83.555509 
   10700    1286.4012   -24048.667   -25378.744    85.166096    223.49046    434.96565   -402.95782      41.7813      41.7813      83.5626 
   10800    1290.9953   -24044.994   -25379.821   -111.91542   -388.19792   -215.61385    268.06553    41.784986    41.784986    83.569973 
   10900    1306.0095   -24041.327   -25391.678   -618.11143   -366.51594   -815.93821   -671.88013    41.788414    41.788414    83.576829 
   11000    1282.8589   -24037.642   -25364.057    160.48004   -607.13145     779.9063    308.66527    41.791217    41.791217    83.582435 
   11100    1297.5622   -24033.962   -25375.578   -459.17032   -805.29915    273.35586   -845.56768    41.794136    41.794136    83.588273 
   11200    1286.0232    -24030.32   -25360.006    7.7382819   -193.16896    262.85173   -46.467927    41.796498    41.796498    83.592995 
   11300    1278.5424   -24026.619   -25348.571    332.52796    302.72906    436.85111    258.00369    41.799586    41.799586    83.599172 
   11400    1261.9658   -24022.804   -25327.616    747.64949    790.80988    1170.9237    281.21489    41.803617    41.803617    83.607234 
   11500     1280.358   -24018.793   -25342.622   -129.19833    -544.7662   -61.611882    218.78309    41.809434    41.809434    83.618868 
   11600    1262.7506   -24014.783   -25320.406    356.29383    1161.2297   -737.03571    644.68747    41.814795    41.814795    83.629591 
   11700    1259.1617   -24010.797    -25312.71    258.98575    -711.6051    983.37184    505.19051     41.81975     41.81975      83.6395 
   11800    1266.1271    -24006.72   -25315.834    -56.35029   -891.57542    357.85391    364.67063    41.824563    41.824563    83.649127 
   11900    1257.2712   -24002.608   -25302.566     16.92136    113.49023     733.0751   -795.80125    41.829343    41.829343    83.658686 
   12000     1263.535   -23998.263   -25304.697   -166.83082    42.814556   -114.57943   -428.72759    41.834392    41.834392    83.668783 
   12100    1235.8675   -23993.882    -25271.71    657.92964    268.17565     271.9741    1433.6392    41.839054    41.839054    83.678109 
   12200    1247.0366   -23989.343   -25278.719    448.87872   -255.72422    1125.1022    477.25823    41.844555    41.844555    83.689109 
   12300    1244.1737    -23984.76   -25271.175    282.84584    -575.8922    1231.6677    192.76202    41.850456    41.850456    83.700913 
   12400    1232.0053   -23980.076    -25253.91    408.67197    1170.5047    136.51219   -81.001027    41.857309    41.857309    83.714619 
   12500    1246.5805   -23975.185   -25264.089   -309.16911   -432.87328   -274.94472   -219.68932    41.864998    41.864998    83.729995 
   12600    1227.0069   -23970.201   -25238.868    105.62583    632.25452   -70.308831   -245.06819    41.872576    41.872576    83.745152 
   12700    1217.0082   -23965.089   -25223.417    196.11219    1245.5507   -434.90878   -222.30538    41.880251    41.880251    83.760503 
   12800    1209.0548   -23959.817   -25209.921    262.40434    537.92332   -201.48438    450.77409    41.888391    41.888391    83.776783 
   12900    1204.2631   -23954.371   -25199.521    48.914951    309.35813    773.06492    -935.6782    41.896681    41.896681    83.793362 
   13000    1190.2869   -23948.845   -25179.545     320.3957    954.97429   -75.633073    81.845877    41.904907    41.904907    83.809814 
   13100     1200.556   -23943.146   -25184.463    6.3954597    288.84509    591.59264   -861.25135    41.913749    41.913749    83.827498 
   13200    1199.6294   -23937.311    -25177.67   -207.28444    991.20202   -754.95149   -858.10385     41.92277     41.92277    83.845541 
   13300    1184.4127   -23931.372   -25155.998   -134.05495   -162.96826   -888.04456    648.84798    41.931061    41.931061    83.862122 
   13400    1184.0341   -23925.364   -25149.598   -27.752949   -279.73673   -355.97205    552.44994    41.937959    41.937959    83.875919 
   13500    1180.9611    -23919.25   -25140.307   -2.7798666    176.53091   -476.88214    292.01163    41.944139    41.944139    83.888277 
   13600    1176.6396   -23913.082   -25129.671   -286.13539    180.24095   -402.56197   -636.08514    41.949559    41.949559    83.899119 
   13700    1171.0359   -23906.768   -25117.562     215.3742    344.18901    1083.1836   -781.24999    41.954423    41.954423    83.908845 
   13800    1170.0008   -23900.451   -25110.176    206.59203    1013.9931   -320.61745    -73.59955    41.959401    41.959401    83.918802 
   13900    1180.0305   -23894.071   -25114.165   -230.23498      592.407   -592.46509   -690.64684    41.964841    41.964841    83.929683 
   14000    1171.4483   -23887.613   -25098.834     18.93976    1010.6373   -724.51217   -229.30589    41.970382    41.970382    83.940764 
   14100    1162.5037   -23881.137    -25083.11     301.4706    1057.3617    382.75746   -535.70736     41.97604     41.97604    83.952079 
   14200    1176.5261   -23874.609    -25091.08    -147.2313    294.98901   -123.37928   -613.30364      41.9815      41.9815       83.963 
   14300    1184.4909   -23868.168   -25092.874   -463.53713    113.42989   -759.82069    -744.2206    41.985931    41.985931    83.971863 
   14400    1172.7682    -23861.72   -25074.306    46.476391   -199.36327    454.07063   -115.27818    41.989306    41.989306    83.978611 
   14500    1170.6691   -23855.232   -25065.647    -19.25031    214.75455   -183.09482   -89.410665    41.992833    41.992833    83.985666 
   14600    1167.8816   -23848.685   -25056.219    39.561099   -21.788988   -322.53483    463.00712    41.996407    41.996407    83.992814 
   14700    1168.8414   -23842.125   -25050.651    189.13623    -220.2655    410.23104    377.44314    42.000042    42.000042    84.000084 
   14800    1171.0172   -23835.563   -25046.338    229.01652    -231.4776   -348.59945    1267.1266    42.004558    42.004558    84.009115 
   14900    1170.3543   -23828.968   -25039.058    184.37344    100.52187   -396.28724    848.88569    42.010101    42.010101    84.020202 
   15000    1181.5747   -23822.455   -25044.146    145.64072   -819.08668    1994.7494   -738.74054     42.01598     42.01598     84.03196 
   15100    1192.9191   -23815.968   -25049.389   -363.32327   -620.64525   -565.39444    96.069896    42.022039    42.022039    84.044078 
   15200    1179.5409   -23809.582    -25029.17   -233.62777    68.919868    -66.41908    -703.3841    42.027561    42.027561    84.055122 
   15300     1177.936   -23803.106   -25021.035   -76.038429   -807.49646   -257.79304    837.17422    42.032413    42.032413    84.064826 
   15400    1178.9706   -23796.619   -25015.618   -79.275206    53.868394   -252.63782   -39.056196    42.036729    42.036729    84.073458 
   15500    1187.2684   -23790.126   -25017.704   -44.797271   -687.63658    918.71362   -365.46886    42.040643    42.040643    84.081285 
   15600    1168.7742   -23783.747   -24992.204    401.49801    145.88528    1161.5532   -102.94448    42.044449    42.044449    84.088897 
   15700    1189.6665   -23777.356   -25007.414   -385.43642   -340.69461   -518.51636   -297.09829    42.047964    42.047964    84.095928 
   15800    1176.0617   -23771.013   -24987.005    362.32338    655.00891    -434.3865    866.34773    42.049936    42.049936    84.099871 
   15900    1191.9314   -23764.737   -24997.136   -131.79918   -202.44195    324.08977   -517.04535    42.051548    42.051548    84.103097 
   16000     1193.874   -23758.548   -24992.956     155.9038    140.75697   -1042.1231    1369.0775    42.052721    42.052721    84.105443 
   16100    1201.2467   -23752.443   -24994.475    108.88896    163.80192   -135.98833    298.85329    42.053624    42.053624    84.107248 
   16200      1186.33   -23746.418   -24973.027    579.12308    263.63814    300.46493    1173.2662    42.054898    42.054898    84.109796 
   16300    1205.1743   -23740.301   -24986.394     153.1244     584.5414   -602.81499     477.6468    42.057198    42.057198    84.114396 
   16400    1209.5054   -23734.327   -24984.897    -7.839967   -57.438266    360.28258   -326.36421    42.059482    42.059482    84.118963 
   16500    1217.5023   -23728.425   -24987.264   -34.161642    613.09494   -469.79131   -245.78856    42.062024    42.062024    84.124049 
   16600    1212.8547   -23722.543   -24976.576    88.484021    146.12964   -134.00792    253.33035    42.065462    42.065462    84.130924 
   16700     1213.821   -23716.714   -24971.746    125.92807    800.44979   -1343.3162    920.65058     42.06999     42.06999    84.139979 
   16800    1208.8612   -23710.951   -24960.855    357.85169    399.68416    1352.9033   -679.03239    42.074792    42.074792    84.149584 
   16900    1218.8091   -23705.337   -24965.527   -149.59751    131.69465    422.73328   -1003.2205    42.079695    42.079695     84.15939 
   17000    1215.6243   -23699.661   -24956.558    194.26834     620.4732     146.9101   -184.57827     42.08412     42.08412     84.16824 
   17100    1227.5768   -23694.076   -24963.332   -345.55659     30.93691   -796.14609    -271.4606    42.088192    42.088192    84.176385 
   17200    1224.2845   -23688.558   -24954.409   -112.93136   -228.52414   -158.81049     48.54055    42.091044    42.091044    84.182087 
   17300    1223.8687   -23683.038    -24948.46   -91.174917    748.25157   -1378.2242    356.44788    42.093103    42.093103    84.186205 
   17400    1229.6651   -23677.541   -24948.956   -151.41595    309.75905   -640.13584   -123.87106    42.094522    42.094522    84.189043 
   17500    1239.6093   -23672.085   -24953.782   -184.78061    255.63506   -1565.0855    755.10861    42.095668    42.095668    84.191336 
   17600    1232.3851   -23666.748   -24940.975    133.36634    1.9470148     -252.877    651.02902    42.096463    42.096463    84.192926 
   17700     1232.303   -23661.466   -24935.609    556.73311    92.790465    1061.3058    516.10311     42.09751     42.09751     84.19502 
   17800    1233.8444   -23656.287   -24932.023    329.06505    542.01806    -131.5225     576.6996    42.099491    42.099491    84.198982 
   17900    1225.3864   -23651.146   -24918.136    788.87233    1212.8258    462.71986    691.07138    42.102767    42.102767    84.205533 
   18000    1248.7225   -23645.981     -24937.1    151.41402    897.80033   -77.548425   -366.00984    42.108283    42.108283    84.216567 
   18100    1245.3122   -23640.886   -24928.478    22.093242   -1230.8349    1091.3466    205.76812    42.115119    42.115119    84.230238 
   18200     1240.844   -23635.797    -24918.77     126.6802     251.2703    55.849123    72.921174    42.122355    42.122355    84.244711 
   18300    1242.5442   -23630.777   -24915.508   -292.56538    -1055.265   -620.43278     798.0017    42.128832    42.128832    84.257665 
   18400     1242.156   -23625.831    -24910.16   -245.10289    47.898964   -241.91116   -541.29646     42.13339     42.13339     84.26678 
   18500    1241.1979   -23620.969   -24904.308   -113.03632   -376.32506    -531.9108    569.12689     42.13586     42.13586    84.271719 
   18600    1250.5668   -23616.044   -24909.069   -68.529958     559.5578   -294.05854   -471.08913    42.137348    42.137348    84.274696 
   18700    1261.5622   -23611.127   -24915.521   -599.45068   -254.62075    148.76816   -1692.4994    42.138385    42.138385     84.27677 
   18800    1248.9122   -23606.347   -24897.662   -16.873654    425.18188   -285.54226   -190.26059    42.137537    42.137537    84.275074 
   18900    1259.8125   -23601.618   -24904.203   -34.328397   -430.94818    638.35046   -310.38747    42.135949    42.135949    84.271898 
   19000    1256.6633   -23597.016   -24896.345   -23.774606   -429.89764    108.28696    250.28687    42.133802    42.133802    84.267605 
   19100    1263.7278   -23592.526    -24899.16    324.68629    737.15645    360.02915   -123.12673    42.131796    42.131796    84.263592 
   19200    1270.7923   -23588.025   -24901.963    553.00617    740.85368    493.69254    424.47228    42.132106    42.132106    84.264212 
   19300    1269.0246   -23583.635   -24895.746    409.89631    20.538349    1609.2613   -400.11072     42.13444     42.13444    84.268879 
   19400    1264.6066   -23579.316   -24886.858    738.63853      1227.66    1013.2355   -24.979934    42.138154    42.138154    84.276308 
   19500      1275.53   -23574.988   -24893.825    13.849725   -394.43444   -595.38845    1031.3721    42.143967    42.143967    84.287934 
   19600    1265.7206    -23570.71   -24879.405   -34.641527   -497.07993    155.46116    237.69418    42.150502    42.150502    84.301004 
   19700    1270.9171   -23566.377   -24880.444   -184.20676   -729.93598   -240.54741    417.86312    42.157058    42.157058    84.314115 
   19800    1262.3426   -23562.107   -24867.309   -124.31807   -242.55131    701.12703   -831.52993    42.162636    42.162636    84.325272 
   19900    1272.6442   -23557.855   -24873.708   -62.819662   -60.364487    133.94402   -262.03851    42.167298    42.167298    84.334596 
   20000    1270.6475   -23553.652    -24867.44   -167.99336   -432.38519   -289.38416    217.78927    42.170744    42.170744    84.341489 
   20100    1272.6231   -23549.546   -24865.377    16.956172   -76.144354   -171.64891    298.66178     42.17282     42.17282    84.345641 
   20200    1276.1393   -23545.519   -24864.985    -347.8602   -1983.7115    1053.7074   -113.57651    42.173401    42.173401    84.346802 
   20300    1278.2889   -23541.601   -24863.291    166.83958    166.91331   -208.35638     541.9618    42.172179    42.172179    84.344357 
   20400    1272.3671   -23537.622   -24853.189    196.49966    -109.4273     929.2169   -230.29061    42.171803    42.171803    84.343607 
   20500    1260.3856   -23533.611   -24836.789    687.52309   -74.795006    2327.3479   -189.98362    42.172439    42.172439    84.344878 
   20600    1287.1366   -23529.536   -24860.373   -197.90266    -513.2229    1264.9765   -1345.4616    42.174234    42.174234    84.348467 
   20700    1292.6094   -23525.645   -24862.141   -77.157377   -768.47245    23.981466    513.01886    42.175408    42.175408    84.350816 
   20800    1299.7088   -23521.946   -24865.782   -215.08642    149.52474   -462.05197   -332.73204    42.176519    42.176519    84.353038 
   20900    1285.9124   -23518.358    -24847.93    292.04131    1535.6285   -134.86772   -524.63686    42.177758    42.177758    84.355515 
   21000    1293.8159   -23514.859   -24852.602    83.200516   -1007.1948    749.56281     507.2335    42.179196    42.179196    84.358392 
   21100    1295.8711    -23511.52   -24851.388    298.93456    368.50476    515.59603    12.702892    42.179999    42.179999    84.359998 
   21200    1302.4006   -23508.171    -24854.79     108.7493   -51.950313   -570.41085    948.60905    42.181915    42.181915    84.363829 
   21300    1289.3545   -23504.791   -24837.922    229.46434    540.35359   -579.50283    727.54224    42.185059    42.185059    84.370117 
   21400    1302.4753   -23501.383    -24848.08   -254.32916    -437.2316   -786.66213    460.90626    42.188686    42.188686    84.377372 
   21500    1299.6218   -23497.968   -24841.715   -158.45658   -148.83514   -835.52883    508.99422    42.191893    42.191893    84.383786 
   21600    1292.3552   -23494.573   -24830.806    161.63157    335.74441    201.05155   -51.901261    42.194847    42.194847    84.389694 
   21700    1307.0827   -23491.109    -24842.57   -243.50039   -582.81439   -224.23727    76.550491    42.197988    42.197988    84.395976 
   21800    1291.2783   -23487.845   -24822.964    98.738225   -289.29141    208.63677    376.86931    42.199711    42.199711    84.399422 
   21900    1312.4846    -23484.66   -24841.706   -174.12416   -37.044544   -107.01086   -378.31707    42.201161    42.201161    84.402323 
   22000    1290.1841    -23481.53   -24815.519    298.74906    1000.5783   -797.18491    692.85377    42.202296    42.202296    84.404592 
   22100    1298.6507   -23478.454   -24821.196    412.12838    548.48859    387.27472    300.62182    42.203259    42.203259    84.406518 
   22200    1310.6579   -23475.441   -24830.598    195.90241    1335.0096    367.58122   -1114.8836    42.204336    42.204336    84.408671 
   22300    1305.9884    -23472.48   -24822.809    198.56487    46.225882    396.83584    152.63288     42.20635     42.20635    84.412699 
   22400    1304.9578   -23469.435   -24818.699    24.893479    45.144105    187.14888   -157.61255    42.209816    42.209816    84.419631 
   22500    1307.9629   -23466.422   -24818.793   -125.09707   -734.32105    157.07717    201.95266    42.213328    42.213328    84.426657 
   22600    1308.4795   -23463.387   -24816.292   -104.60163    178.05966    923.90122   -1415.7658    42.216565    42.216565     84.43313 
   22700    1310.0757    -23460.36   -24814.915   -179.89337    50.504471   -916.20272    326.01815     42.21966     42.21966     84.43932 
   22800    1319.9955   -23457.329    -24822.14   -122.51926    106.88144    235.84963   -710.28886    42.222711    42.222711    84.445422 
   22900    1300.7093   -23454.387   -24799.258    379.48459    502.08917    526.54632    109.81828    42.225938    42.225938    84.451876 
   23000    1310.6719   -23451.515   -24806.686   -54.556985   -176.92186    689.12687   -675.87597    42.229165    42.229165     84.45833 
   23100    1324.5923   -23448.771   -24818.336   -489.56997    -125.6923   -1683.1603    340.14264    42.231724    42.231724    84.463449 
   23200    1321.4581   -23446.002   -24812.326   -324.74613    118.27468   -1305.6336    213.12051    42.233692    42.233692    84.467384 
   23300    1319.4117   -23443.261   -24807.469    24.309721    1150.0385   -700.81437   -376.29499    42.235203    42.235203    84.470406 
   23400    1316.0332   -23440.645    -24801.36   -304.61176    108.27893   -736.75472    -285.3595    42.236176    42.236176    84.472352 
   23500    1317.3326   -23438.191   -24800.249   -164.20027   -92.024572   -184.30356   -216.27269    42.235566    42.235566    84.471133 
   23600     1332.118   -23435.742   -24813.088   -261.55727   -891.25698     13.80745    92.777712    42.233967    42.233967    84.467935 
   23700     1323.201   -23433.385   -24801.512    157.95221   -437.57871    -196.1439    1107.5792    42.231476    42.231476    84.462951 
   23800      1327.39   -23431.132    -24803.59     18.74208   -338.67861    192.70934    202.19551    42.229402    42.229402    84.458804 
   23900    1332.2793   -23429.075   -24806.588    159.68669   -427.36919    45.866511    860.56276    42.226794    42.226794    84.453588 
   24000    1314.1385   -23427.123   -24785.879    570.15889    -72.18099    1431.7947    350.86293    42.224678    42.224678    84.449357 
   24100    1327.6312   -23425.105   -24797.812    442.33838    854.42071    539.38017   -66.785731     42.22507     42.22507    84.450139 
   24200    1323.3688   -23423.111    -24791.41    297.89868    496.54951   -479.72316     876.8697    42.227567    42.227567    84.455133 
   24300    1328.7601   -23421.139   -24795.013    290.40353    1159.5507    6.4142681    -294.7544    42.231263    42.231263    84.462525 
   24400    1310.2232   -23419.159   -24773.867    447.62789     1234.141    304.77756   -196.03487    42.235915    42.235915    84.471831 
   24500    1317.0603   -23417.105   -24778.882    183.78048    929.88086   -197.79496   -180.74446    42.240837    42.240837    84.481675 
   24600    1327.8712    -23414.98   -24787.935   -355.09863   -714.73227   -320.21773   -30.345871    42.245413    42.245413    84.490826 
   24700    1314.2731   -23412.755    -24771.65    110.54874   -250.61769    423.00109    159.26281    42.248964    42.248964    84.497928 
   24800    1328.6012   -23410.371   -24784.081   -417.19681   -671.78887   -486.31792   -93.483632    42.252314    42.252314    84.504628 
   24900    1349.9142   -23408.084   -24803.831   -1135.0327   -1231.7117    253.77936   -2427.1657    42.253731    42.253731    84.507461 
   25000    1338.5437   -23405.951    -24789.94   -502.03035      89.7342   -365.79187   -1230.0334    42.252318    42.252318    84.504636 
   25100    1333.4653   -23403.866   -24782.605   -420.40513    275.69334   -387.78197   -1149.1268    42.249681    42.249681    84.499362 
   25200    1324.4232   -23401.879   -24771.269    357.04508    735.18077   -533.13739    869.09187    42.246119    42.246119    84.492238 
   25300    1332.2627   -23400.012   -24777.508    209.01535    270.43824    -357.3716    713.97941    42.243046    42.243046    84.486093 
   25400    1324.5534   -23398.195    -24767.72    602.94828    1127.2292    1221.8771   -540.26139     42.24113     42.24113     84.48226 
   25500    1339.7516   -23396.374   -24781.612    250.21597    135.75363    103.65768    511.23659    42.241276    42.241276    84.482552 
   25600    1333.9867   -23394.679   -24773.957    560.99153    1951.4325    146.64351   -415.10145    42.242868    42.242868    84.485735 
   25700    1349.2679   -23393.106   -24788.184   -120.00149   -150.74358   -639.22179     429.9609     42.24603     42.24603    84.492059 
   25800    1322.0887     -23391.6   -24758.576    917.77868    2169.5895    149.91186    433.83473    42.249955    42.249955    84.499909 
   25900    1347.4918   -23390.068    -24783.31   -336.97984   -792.14214    578.62671   -797.42409    42.255775    42.255775     84.51155 
   26000    1319.5809    -23388.59   -24752.973    628.39648    574.17688    1335.1096   -24.097056     42.26095     42.26095      84.5219 
   26100    1349.2635   -23387.072   -24782.145    -602.7116   -1383.0538   -71.058496   -354.02247    42.266401    42.266401    84.532802 
   26200     1347.803    -23385.67   -24779.233   -665.15434   -825.82068   -950.38044   -219.26191    42.269536    42.269536    84.539071 
   26300    1331.3877    -23384.38    -24760.97   -437.92089   -306.19489   -167.41966   -840.14812    42.269974    42.269974    84.539947 
   26400    1346.1127   -23383.123   -24774.939   -90.060807    162.19677    -570.2875     137.9083    42.267851    42.267851    84.535702 
   26500    1346.4378   -23381.935   -24774.087   -413.71578    266.14202   -753.77883   -753.51052    42.264919    42.264919    84.529837 
   26600    1342.9626   -23380.856   -24769.414    119.96633   -35.933175    88.742132    307.09005    42.260866    42.260866    84.521733 
   26700    1341.6596   -23379.844   -24767.056    303.10771    -24.94112    364.62018    569.64408    42.256764    42.256764    84.513529 
   26800    1329.8902   -23378.848    -24753.89    453.87438    1010.5057   -187.72425    538.84175     42.25369     42.25369     84.50738 
   26900    1329.6573   -23377.822   -24752.624    814.27674    989.21639   -11.859711    1465.4735    42.252127    42.252127    84.504255 
   27000     1337.561   -23376.732   -24759.706    461.20341    689.96223   -332.15654    1025.8045    42.252787    42.252787    84.505574 
   27100    1355.3006    -23375.67   -24776.985    41.246793    -1546.027    1446.6237    223.14367    42.254948    42.254948    84.509896 
   27200    1346.0133   -23374.775   -24766.488    116.07405   -283.34069    616.34182     15.22103    42.258184    42.258184    84.516368 
   27300    1346.1585   -23373.899   -24765.762   -44.002568   -187.15778    333.16583   -278.01575    42.262327    42.262327    84.524655 
   27400    1347.0765       -23373   -24765.812   -299.41849   -157.01142     511.7312   -1252.9753    42.266709    42.266709    84.533418 
   27500    1337.8513   -23372.084   -24755.358   -304.77002    143.52038    217.55868   -1275.3891    42.270322    42.270322    84.540644 
   27600    1335.0651   -23371.133   -24751.526    46.896422    43.674341   -31.899442    128.91437    42.272842    42.272842    84.545685 
   27700    1340.0998   -23370.181   -24755.779   -85.897849   -591.38429   -328.32694    662.01768    42.274733    42.274733    84.549465 
   27800    1337.6683   -23369.269   -24752.354    196.74229    1128.5329   -160.27011   -378.03597    42.275282    42.275282    84.550565 
   27900    1323.8807   -23368.376   -24737.205    306.85687    528.42747   -56.980106    449.12325    42.275116    42.275116    84.550232 
   28000    1354.7265   -23367.372   -24768.094   -437.82156    473.53239   -877.26947   -909.72761    42.274987    42.274987    84.549974 
   28100    1342.8826   -23366.541   -24755.017   -113.06759   -361.26857   -416.93437    439.00018     42.27339     42.27339    84.546779 
   28200    1352.8502   -23365.818     -24764.6   -173.50715   -127.30719   -545.66142    152.44715    42.270978    42.270978    84.541955 
   28300    1358.8096   -23365.203   -24770.147   -51.184724    68.200369   -1083.7475    861.99292    42.268077    42.268077    84.536154 
   28400    1353.2516   -23364.764   -24763.962    4.4072509    1703.4734   -722.84888   -967.40276    42.265146    42.265146    84.530291 
   28500    1361.1505   -23364.458   -24771.822    115.50107    774.20746    495.09894   -922.80318    42.262217    42.262217    84.524434 
   28600    1352.9305   -23364.248   -24763.113    377.19179    1525.7557    503.60504   -897.78533    42.259917    42.259917    84.519834 
   28700    1361.4843   -23364.005   -24771.714    134.71082    1566.7409   -284.86152   -877.74697    42.259915    42.259915     84.51983 
   28800    1350.2024   -23363.902   -24759.946    368.31705    1393.3777   -212.98337   -75.443148    42.261399    42.261399    84.522799 
   28900    1349.0975   -23363.769   -24758.671    219.32771    1344.0268    -107.6152   -578.42844    42.265295    42.265295     84.53059 
   29000    1334.8955   -23363.633   -24743.851    463.72729    1613.2418   -15.725919     -206.334     42.27013     42.27013    84.540261 
   29100    1342.3416   -23363.375   -24751.292    36.363418   -524.11389    179.74133    453.46281     42.27565     42.27565    84.551299 
   29200    1341.1018   -23363.033   -24749.668   -68.964743   -460.78459    747.99601   -494.10565    42.280534    42.280534    84.561069 
   29300    1345.2129   -23362.606   -24753.492   -65.284468    296.09825   -1832.4925    1340.5408     42.28448     42.28448     84.56896 
   29400    1349.0969   -23362.171   -24757.072   -556.32857   -1081.5114   -918.59519    331.12094    42.287146    42.287146    84.574291 
   29500    1356.3115   -23361.725   -24764.086     -518.728   -128.29672   -770.54582   -657.34147    42.287814    42.287814    84.575628 
   29600    1350.6627   -23361.324   -24757.844   -1069.1849   -1231.4254   -1310.5929   -665.53638    42.286201    42.286201    84.572403 
   29700    1333.8995   -23360.903    -24740.09   -327.16346    801.44133   -1925.4346    142.50289    42.281485    42.281485    84.562971 
   29800    1359.9795   -23360.319   -24766.473   -585.25372    127.52496   -1827.9144   -55.371674    42.275567    42.275567    84.551134 
   29900    1349.4338   -23359.776   -24755.026     228.3216    818.98328    122.99196   -257.01045    42.269351    42.269351    84.538702 
   30000    1344.2451    -23359.42   -24749.305    649.59057     1373.897    534.09436     40.78038    42.264628    42.264628    84.529257 
   30100    1369.4372   -23359.141   -24775.073   -306.12901    4.1840821   -526.42897   -396.14214    42.261901    42.261901    84.523802 
   30200    1354.9181   -23359.106   -24760.026    473.70795    170.81913    487.81023     762.4945    42.259175    42.259175     84.51835 
   30300    1357.7948   -23359.194   -24763.088    194.90712    490.66983   -630.30475    724.35627    42.257995    42.257995     84.51599 
   30400     1364.549   -23359.338   -24770.216   -91.112341   -373.57374   -931.72004    1031.9568    42.258783    42.258783    84.517566 
   30500    1355.8424   -23359.714    -24761.59    40.656948   -346.38884    721.01836   -252.65867    42.259611    42.259611    84.519222 
   30600    1362.7519   -23360.238   -24769.258    2.3178638   -784.81676     94.47629    697.29407    42.260422    42.260422    84.520844 
   30700    1343.2579   -23360.855   -24749.719    458.33071    387.17055    73.831871    913.98972    42.261367    42.261367    84.522735 
   30800    1346.3243   -23361.416   -24753.451    319.30402    583.72604   -142.66384    516.84986    42.263336    42.263336    84.526671 
   30900    1349.0516   -23361.825    -24756.68    166.95034    79.072552   -60.092669    481.87112    42.267314    42.267314    84.534629 
   31000    1341.2837   -23362.266   -24749.089    242.25837    557.64877   -123.65089    292.77723    42.271643    42.271643    84.543286 
   31100     1331.972     -23362.6   -24739.795    278.16664   -139.81425     697.8022    276.51196    42.275806    42.275806    84.551612 
   31200     1345.616   -23362.667   -24753.969   -201.43824   -134.79773   -218.95813   -250.55884    42.279908    42.279908    84.559817 
   31300     1341.894   -23362.724   -24750.177   -296.50042   -616.47737   -118.64837   -154.37551     42.28225     42.28225      84.5645 
   31400    1353.5992   -23362.728   -24762.284   -649.44007   -842.52172   -770.57774   -335.22073    42.282667    42.282667    84.565333 
   31500    1345.6329   -23362.686   -24754.006   -235.90785   -85.884241   -25.736435   -596.10287    42.280843    42.280843    84.561685 
   31600    1367.9555   -23362.644   -24777.044   -756.33068     -745.884   -1173.2424   -349.86565    42.276833    42.276833    84.553666 
   31700    1341.9606    -23362.65   -24750.173    101.50345   -901.02091    122.98043    1082.5508    42.270498    42.270498    84.540997 
   31800    1351.7456   -23362.701   -24760.341    66.319057   -338.27016   -253.03201    790.25934      42.2635      42.2635       84.527 
   31900    1357.1548    -23362.75   -24765.983    280.78466   -722.89377    818.04499    747.20275    42.257557    42.257557    84.515114 
   32000    1353.3039   -23362.836   -24762.087    754.43789    908.00337    1319.2416    36.068749    42.253822    42.253822    84.507645 
   32100     1356.086   -23362.859   -24764.987    323.60757    177.25466    282.60447    510.96356    42.254033    42.254033    84.508066 
   32200    1357.7432   -23362.891   -24766.732    223.80471    110.07842   -699.96237    1261.2981    42.256581    42.256581    84.513161 
   32300    1358.1269   -23363.053   -24767.291    219.83321    776.28795   -400.54243    283.75412    42.260483    42.260483    84.520967 
   32400     1342.231   -23363.422   -24751.224    618.73321    1240.1211     483.3052    132.77333    42.264694    42.264694    84.529387 
   32500    1342.5873   -23363.833   -24752.004    175.64628    311.10337   -452.30273    668.13821    42.269474    42.269474    84.538948 
   32600    1329.6827   -23364.161   -24738.989    459.59987    211.28793    439.80985    727.70182    42.274406    42.274406    84.548812 
   32700    1336.1496   -23364.328   -24745.843   -713.77558   -783.71411   -1199.5486   -158.06403    42.279063    42.279063    84.558127 
   32800    1353.1999   -23364.307    -24763.45   -545.47824   -82.815874   -670.22343    -883.3954    42.281235    42.281235    84.562471 
   32900    1333.9443   -23364.094   -24743.328   -18.083471   -557.00698    10.153461     492.6031    42.282229    42.282229    84.564458 
   33000    1353.5224   -23363.743   -24763.221   -913.94489   -708.94394   -2586.8759    553.98522     42.28206     42.28206     84.56412 
   33100    1333.7576    -23363.41   -24742.452   -199.33558    215.68197   -854.36548    40.676773    42.278684    42.278684    84.557368 
   33200    1358.0973   -23363.056   -24767.263    -483.4443   -915.19782   -536.98189    1.8468096    42.273692    42.273692    84.547383 
   33300    1355.7668   -23362.898   -24764.695    51.740385    483.96894   -58.108223   -270.63956    42.267244    42.267244    84.534489 
   33400    1338.2367   -23362.734   -24746.406     334.6205    542.97807    751.55599   -290.67258    42.261624    42.261624    84.523247 
   33500    1349.3875   -23362.592   -24757.793    511.24399   -88.243076    1509.9895    111.98553    42.256758    42.256758    84.513516 
   33600    1352.4871   -23362.455   -24760.862    93.587014    319.83753    667.70379   -706.78028    42.253606    42.253606    84.507212 
   33700     1361.957   -23362.357   -24770.555    348.75133    966.47961    1389.3021   -1309.5277    42.252209    42.252209    84.504418 
   33800    1338.7575   -23362.339    -24746.55    1012.8371    1175.6048    1083.4403    779.46626    42.253445    42.253445     84.50689 
   33900    1351.9034   -23362.193   -24759.996    157.55163    492.42833     630.7798   -650.55323     42.25854     42.25854     84.51708 
   34000    1353.8567   -23362.035   -24761.858    20.642824    206.33461    551.39296   -695.79909    42.265033    42.265033    84.530066 
   34100    1352.1808   -23361.839   -24759.929   -75.356831    644.54923   -1239.5424    368.92265    42.272227    42.272227    84.544455 
   34200    1349.5511   -23361.534   -24756.905   -328.12096    343.17328   -512.80405   -814.73209     42.28001     42.28001     84.56002 
   34300    1338.9212   -23361.204   -24745.584   -169.53026     325.0309   -341.98187   -491.63982    42.286637    42.286637    84.573274 
   34400     1343.833    -23360.82   -24750.279   -853.80831   -64.969826    -1343.138   -1153.3171    42.291244    42.291244    84.582488 
   34500    1349.4735   -23360.445   -24755.736   -766.95829   -56.694674   -567.35606   -1676.8241    42.291787    42.291787    84.583573 
   34600    1327.3914   -23360.111    -24732.57   -136.56322    1009.0088    30.147696   -1448.8462    42.288462    42.288462    84.576924 
   34700    1346.2226    -23359.81   -24751.739   -413.81284   -113.33692    714.33728   -1842.4389     42.28253     42.28253     84.56506 
   34800    1356.5106     -23359.4   -24761.967   -211.50175   -1810.9707    748.57379    427.89161    42.275606    42.275606    84.551212 
   34900    1363.1016   -23358.876   -24768.257   -66.850061    279.73929   -56.655674    -423.6338    42.269005    42.269005    84.538009 
   35000    1366.5512   -23358.476   -24771.424   -398.87002   -893.65179    -352.0032    49.044922    42.263013    42.263013    84.526026 
   35100    1353.0985    -23358.21   -24757.248    476.25759   -942.25578    606.38416    1764.6444    42.257897    42.257897    84.515794 
   35200     1346.381    -23358.03   -24750.123    785.16346    1352.2171   -247.91836    1251.1917    42.255328    42.255328    84.510656 
   35300    1360.7247   -23357.916    -24764.84     202.8599    398.62398    335.16025   -125.20453    42.255898    42.255898    84.511796 
   35400    1358.4326   -23357.839   -24762.393      149.176   -638.02584    331.88834     753.6655     42.25867     42.25867    84.517339 
   35500    1351.8066   -23357.874   -24755.577   -193.44969    -795.1053   -58.541689    273.29791    42.262493    42.262493    84.524987 
   35600    1353.5849   -23357.976   -24757.517    616.69494   -338.72111    1368.4377    820.36827    42.266362    42.266362    84.532723 
   35700    1349.9647    -23358.12   -24753.919    10.396834   -344.98454    437.65559   -61.480541    42.271712    42.271712    84.543423 
   35800    1356.4143   -23358.274   -24760.741   -173.97956     24.58217   -576.85423    30.333386    42.276806    42.276806    84.553611 
   35900    1361.9171   -23358.428   -24766.585   -306.84916   -701.12214   -1367.0739    1147.6485    42.281157    42.281157    84.562315 
   36000     1355.619   -23358.564   -24760.209   -595.24396   -1275.0422   -4.0154908   -506.67418    42.284604    42.284604    84.569209 
   36100    1345.4346   -23358.589   -24749.703     -528.713   -388.40097   -1163.9423   -33.795673    42.286588    42.286588    84.573176 
   36200    1355.5706   -23358.466   -24760.061   -661.76649    207.75345   -1287.4032    -905.6497     42.28691     42.28691    84.573819 
   36300    1344.0989   -23358.317   -24748.051   -256.50773    511.96156   -449.99093   -831.49382    42.284936    42.284936    84.569873 
   36400    1349.0222    -23358.17   -24752.994   -59.076294    945.18972   -516.59632   -605.82228    42.281292    42.281292    84.562584 
   36500    1353.3124   -23358.025   -24757.285   -155.39281    1562.3257   -1435.0947   -593.40942    42.276835    42.276835    84.553669 
   36600     1353.565   -23357.921   -24757.442    77.182711    926.95933   -84.375678   -611.03552    42.271628    42.271628    84.543256 
   36700    1346.0424   -23357.768   -24749.511    281.90679    570.73011   -265.61576    540.60602    42.267083    42.267083    84.534166 
   36800    1347.3237   -23357.601   -24750.669    480.28182    955.50126    459.96066    25.383546    42.264297    42.264297    84.528593 
   36900    1363.0017   -23357.509   -24766.787    33.716349   -243.34681    190.52615    153.96971    42.263541    42.263541    84.527082 
   37000    1351.9894   -23357.529   -24755.421     234.0672    1174.6481   -311.24865   -161.19783    42.263526    42.263526    84.527052 
   37100     1350.504   -23357.611   -24753.967    128.45673   -515.27158   -513.07164    1413.7134    42.264186    42.264186    84.528372 
   37200    1352.4521   -23357.731   -24756.102     130.0605    100.67293    903.24418   -613.73562      42.2652      42.2652      84.5304 
   37300    1349.5104   -23358.009   -24753.338    359.00313    639.05646    123.76404     314.1889    42.266091    42.266091    84.532182 
   37400    1342.1644   -23358.403   -24746.136    522.73508    1559.3912   -320.68172    329.49574    42.267183    42.267183    84.534366 
   37500    1349.2096   -23358.714   -24753.732    81.302482    880.39862   -1020.3037    383.81256    42.269823    42.269823    84.539646 
   37600    1348.0282   -23359.054   -24752.851     186.4685     1244.371   -810.40229    125.43676    42.272966    42.272966    84.545933 
   37700    1349.0386   -23359.261   -24754.102     129.0815     95.76244    1042.4646   -750.98251    42.276842    42.276842    84.553684 
   37800    1349.3701   -23359.325   -24754.509   -121.22703   -575.35326    331.73231   -120.06014    42.280713    42.280713    84.561425 
   37900    1329.0695   -23359.334   -24733.528   -112.47309   -646.39867   -406.73786    715.71725    42.283654    42.283654    84.567309 
   38000    1349.2504   -23359.066   -24754.126   -537.80484   -75.781131   -1522.5618   -15.071639    42.285645    42.285645    84.571291 
   38100    1368.4304   -23358.716   -24773.607   -891.20242   -467.35981    -798.7735   -1407.4739    42.286041    42.286041    84.572081 
   38200    1346.4197   -23358.406    -24750.54   -538.13393    -548.9573   -638.77515   -426.66933    42.284501    42.284501    84.569003 
   38300     1352.925   -23358.104   -24756.963    -45.44593    527.75495   -38.637386   -625.45535    42.281056    42.281056    84.562111 
   38400    1348.0219     -23357.7    -24751.49   -249.76814    458.21982   -904.82773   -302.69651    42.277935    42.277935     84.55587 
   38500    1350.0034   -23357.268   -24753.106    -274.8158   -370.54998    668.27375   -1122.1712    42.274084    42.274084    84.548168 
   38600    1350.0253   -23356.928   -24752.789     230.3729    193.91391    917.32845   -420.12365    42.269248    42.269248    84.538495 
   38700    1347.1439   -23356.619   -24749.501    451.58255    680.48195   -70.893466    745.15916    42.265456    42.265456    84.530912 
   38800    1364.5761   -23356.402   -24767.308    9.7582788   -221.90224   -353.75103    604.92811    42.263331    42.263331    84.526661 
   38900    1342.3506   -23356.355   -24744.281    722.50261    1147.6813    839.25598    180.57053    42.262147    42.262147    84.524294 
   39000    1362.4023    -23356.34   -24764.998   -100.20262    29.414346    19.454761   -349.47698    42.262856    42.262856    84.525712 
   39100    1352.9283   -23356.353   -24755.215    239.13437    517.20957    326.81879   -126.62524    42.264636    42.264636    84.529272 
   39200    1350.8841   -23356.339   -24753.088    261.89048    814.08861    607.61138   -636.02855    42.268168    42.268168    84.536336 
   39300     1345.358   -23356.348   -24747.383    233.82337    139.46957    337.33462    224.66591    42.272351    42.272351    84.544701 
   39400    1349.6831   -23356.318   -24751.825   -307.55236    993.88218   -1742.8288   -173.71044    42.276486    42.276486    84.552972 
   39500    1354.6883   -23356.389   -24757.071   -333.42562     -1271.55    -706.9472    978.22038    42.278971    42.278971    84.557942 
   39600    1331.2275   -23356.556   -24732.981   -58.030797   -97.061913    337.09463    -414.1251     42.27987     42.27987    84.559739 
   39700    1364.1628     -23356.7   -24767.179    -545.0325    21.935726   -754.98708   -902.04614     42.27922     42.27922     84.55844 
   39800    1347.4339   -23356.936   -24750.118   -120.05515    737.56246   -138.82694   -958.90098    42.276432    42.276432    84.552864 
   39900    1357.3462   -23357.219    -24760.65    196.67359    132.51695    1351.8564   -894.35262     42.27252     42.27252    84.545039 
   40000      1352.78   -23357.495   -24756.205    121.98883   -481.13471   -77.301161    924.40235    42.269423    42.269423    84.538845 
   40100    1340.9059    -23357.67   -24744.102    630.73246    1462.4467    289.40283    140.34788    42.267529    42.267529    84.535058 
   40200    1355.9929   -23357.813   -24759.845    60.462162   -314.84101    76.228438    419.99906    42.266735    42.266735     84.53347 
   40300    1336.0579   -23357.958   -24739.378    362.38203    355.31174     -38.4779    770.31224    42.266729    42.266729    84.533458 
   40400    1343.9671   -23358.185   -24747.782     365.4785    -628.5994     884.2911     840.7438    42.266714    42.266714    84.533427 
   40500    1346.0031   -23358.447   -24750.149    201.19846   -874.92943    974.66429    503.86053     42.26728     42.26728     84.53456 
   40600    1359.6272   -23358.728   -24764.517    19.942452   -377.83099    686.30572   -248.64738    42.268636    42.268636    84.537272 
   40700    1347.6648    -23359.01   -24752.431    127.72031    -1187.944    564.60251    1006.5025    42.270371    42.270371    84.540742 
   40800    1357.3819   -23359.266   -24762.733   -232.41292   -77.503416   -140.79826   -478.93707    42.272647    42.272647    84.545294 
   40900    1349.0471   -23359.421    -24754.27   -24.827953    255.20157   -365.07163    35.386207    42.274744    42.274744    84.549488 
   41000    1354.5665   -23359.451   -24760.008   -406.80461    129.78971   -528.16178   -822.04175     42.27705     42.27705    84.554101 
   41100     1372.273   -23359.485    -24778.35   -849.09023   -2260.8021   -572.18567    285.71704    42.278036    42.278036    84.556071 
   41200    1342.0612   -23359.647   -24747.274   -247.61644    749.30542   -595.20959   -896.94515    42.275966    42.275966    84.551933 
   41300    1341.7636   -23359.835   -24747.154     147.1022   -236.79747    791.14076   -113.03671    42.271947    42.271947    84.543893 
   41400    1354.6598   -23359.953   -24760.606     119.7597    594.24227   -405.34056     170.3774    42.267818    42.267818    84.535636 
   41500    1360.7127   -23359.991   -24766.903   -6.6231114   -339.25627    130.96887    188.41806    42.264934    42.264934    84.529868 
   41600    1358.4691   -23360.115   -24764.707    149.43753     982.8427   -233.90486   -300.62525    42.262723    42.262723    84.525445 
   41700    1350.1172   -23360.339   -24756.296    315.32312    189.10069    1191.5198   -434.65118    42.261037    42.261037    84.522073 
   41800    1352.2458   -23360.487   -24758.644    483.31104     262.5306    1059.1684    128.23414    42.261301    42.261301    84.522602 
   41900    1352.7236   -23360.609    -24759.26    121.89432     141.0921   -280.04894     504.6398    42.263549    42.263549    84.527097 
   42000    1331.8006   -23360.655   -24737.672    654.21137    189.42078   -154.28941    1927.5027    42.266764    42.266764    84.533527 
   42100     1356.456   -23360.668   -24763.178   -207.17658    556.72763    597.08027   -1775.3376    42.271737    42.271737    84.543474 
   42200    1352.8191     -23360.7    -24759.45   -452.61702   -102.44514   -1033.2592   -222.14673    42.276597    42.276597    84.553194 
   42300    1340.9259   -23360.627    -24747.08   -34.707281    -46.55243    234.55921   -292.12862    42.280823    42.280823    84.561645 
   42400    1330.4485   -23360.328   -24735.948   -88.306601     11.02965   -101.52635   -174.42311     42.28452     42.28452    84.569039 
   42500    1341.4548   -23359.854   -24746.854   -737.10845   -654.14841   -134.79076   -1422.3862    42.287051    42.287051    84.574103 
   42600     1345.575   -23359.353   -24750.613   -695.13086    72.851829   -593.36262   -1564.8818    42.286621    42.286621    84.573242 
   42700    1359.6563   -23358.872   -24764.691   -709.00322   -284.89141   -705.97073   -1136.1475    42.282783    42.282783    84.565567 
   42800      1349.07    -23358.53   -24753.404   -98.577202    230.81979    393.66573   -920.21712    42.275913    42.275913    84.551826 
   42900    1380.2714   -23358.332   -24785.466   -861.74168   -1472.6698   -468.95069   -643.60459    42.268015    42.268015     84.53603 
   43000     1345.975   -23358.272   -24749.945    465.66735    650.88605    789.66042   -43.544404    42.259678    42.259678    84.519355 
   43100      1354.69   -23358.224   -24758.908    542.63752    582.02792    701.14137    344.74327    42.253866    42.253866    84.507732 
   43200    1343.2713   -23358.219   -24747.096    1037.6414    1757.3918    402.24685     953.2856    42.251199    42.251199    84.502397 
   43300    1353.3572   -23358.233   -24757.539    743.32507    1233.7705    958.39747    37.807229    42.252434    42.252434    84.504869 
   43400    1342.1979    -23358.33   -24746.098    901.34854    1258.2056    14.429299    1431.4107    42.257236    42.257236    84.514472 
   43500    1375.6835   -23358.414   -24780.805   -298.59288    413.29471   -1616.6482    307.57486    42.265264    42.265264    84.530528 
   43600     1354.973   -23358.633    -24759.61    6.2303108   -229.46119    568.34216   -320.19004    42.273146    42.273146    84.546293 
   43700    1356.8014    -23358.91   -24761.777   -829.57558   -682.75737   -351.21244   -1454.7569      42.2799      42.2799      84.5598 
   43800    1354.3959   -23359.237   -24759.617   -836.77183   -270.80471    -214.5958    -2024.915     42.28367     42.28367    84.567341 
   43900     1343.316   -23359.555    -24748.48   -401.64735   -939.45888    465.08136   -730.56451    42.284533    42.284533    84.569067 
   44000    1335.4407   -23359.711   -24740.492   -262.54789   -564.92415   -688.85022    466.13069    42.283135    42.283135    84.566271 
   44100    1340.4479   -23359.798   -24745.757   -250.52356     68.92981    1300.2351   -2120.7355    42.279126    42.279126    84.558253 
   44200    1354.5986   -23359.695   -24760.285   -183.09107   -319.09712   -401.00821    170.83212    42.274319    42.274319    84.548638 
   44300    1347.3434   -23359.462    -24752.55    190.16688       1205.9   -696.22391    60.824507    42.269922    42.269922    84.539844 
   44400    1336.6525   -23359.248   -24741.282    748.74316   -275.86293    955.88068    1566.2117    42.266101    42.266101    84.532202 
   44500    1342.6517   -23359.054   -24747.291    418.52979    199.22517    549.98798    506.37623     42.26396     42.26396     84.52792 
   44600    1351.8981   -23358.857   -24756.655    256.42425    911.06793    521.62521   -663.42038     42.26356     42.26356     84.52712 
   44700    1356.4163   -23358.856   -24761.325    259.48973    310.84083    748.53303   -280.90468    42.264199    42.264199    84.528397 
   44800    1367.1669   -23358.921   -24772.506   -174.41604   -627.71103    -189.5068    293.96971    42.266481    42.266481    84.532961 
   44900    1348.5079   -23359.071   -24753.363   0.45217566    432.60385    25.424662   -456.67199    42.269072    42.269072    84.538144 
   45000    1353.3832   -23359.419   -24758.752   -203.35207    638.90982   -1852.4529    603.48684    42.271015    42.271015    84.542031 
   45100     1357.835   -23359.786   -24763.722   -28.472944    1149.2914   -407.65195   -827.05825    42.272363    42.272363    84.544726 
   45200    1349.8346    -23360.21   -24755.874    -110.0287     862.4912   -271.82651   -920.75081     42.27331     42.27331     84.54662 
   45300    1357.1024   -23360.722   -24763.901   -330.69096    429.14444   -681.81091    -739.4064    42.273281    42.273281    84.546561 
   45400    1353.3785   -23361.178   -24760.506   -484.69204   -13.507706   -1045.2984   -395.27001    42.272474    42.272474    84.544949 
   45500    1345.9446   -23361.659   -24753.301    232.12267    406.22363   -139.37634     429.5207    42.270434    42.270434    84.540867 
   45600    1348.4716    -23362.05   -24756.305   -83.043636   -231.29661   -122.09243    104.25813     42.26902     42.26902    84.538039 
   45700    1340.1157   -23362.406   -24748.021    510.03161       937.83   -1107.1557    1699.4206    42.267466    42.267466    84.534933 
   45800    1346.5214   -23362.681   -24754.919   -170.78382    602.82724   -168.65289    -946.5258    42.266539    42.266539    84.533077 
   45900    1350.8635   -23362.863   -24759.591   -217.37726   -194.90372    560.97693    -1018.205    42.264762    42.264762    84.529524 
   46000    1355.8344   -23363.117   -24764.985    159.41443    719.83047   -39.883596   -201.70359    42.262036    42.262036    84.524073 
   46100    1348.4853   -23363.408   -24757.677    552.14435    1203.8936    1025.3397   -572.80019    42.260093    42.260093    84.520185 
   46200    1346.3393   -23363.647   -24755.697    300.97999    523.15923    -357.0786    736.85933    42.259746    42.259746    84.519492 
   46300    1343.8331   -23363.835   -24753.293    401.77934    84.188175    612.26892    508.88093     42.26053     42.26053     84.52106 
   46400    1356.8281   -23364.022   -24766.917    316.16553    602.63347    659.51143   -313.64829    42.262668    42.262668    84.525336 
   46500    1347.6744   -23364.159    -24757.59    208.17952    1201.4813   -488.47466   -88.468049    42.266893    42.266893    84.533785 
   46600    1347.3825   -23364.211    -24757.34    265.26979    377.60943   -293.46512    711.66506    42.272524    42.272524    84.545049 
   46700     1356.497   -23364.121   -24766.674   -617.18163   -1001.6333   -525.62765   -324.28394    42.278509    42.278509    84.557018 
   46800    1354.8822    -23364.13   -24765.013   -426.49107    -120.7783   -764.07241   -394.62251    42.281636    42.281636    84.563273 
   46900    1349.5254   -23364.155   -24759.499   -320.76833    648.66131   -1080.9021   -530.06415     42.28239     42.28239     84.56478 
   47000    1365.6716   -23364.085   -24776.124   -827.06242    101.26272   -1977.4697   -604.98023    42.281584    42.281584    84.563167 
   47100    1353.5429   -23363.998   -24763.496   -169.99591    121.16129    225.20952   -856.35854    42.279144    42.279144    84.558288 
   47200    1340.0239   -23363.802   -24749.322    57.955467    1173.2617      251.603   -1250.9983    42.276478    42.276478    84.552956 
   47300    1324.6823   -23363.472    -24733.13    413.97264    221.92921    433.45092    586.53779    42.273268    42.273268    84.546536 
   47400    1349.0745   -23363.014   -24757.892     49.26273   -24.633828    765.69737   -593.27535    42.270392    42.270392    84.540784 
   47500     1356.446    -23362.53    -24765.03   -201.57657   -98.208059   -3.2202381   -503.30141    42.267976    42.267976    84.535951 
   47600    1346.9712   -23362.093   -24754.797    369.07444     120.4302    158.74712    828.04601    42.265497    42.265497    84.530995 
   47700    1349.0907   -23361.665    -24756.56    398.53497    1329.6663    391.57385   -525.63527    42.264207    42.264207    84.528414 
   47800    1341.9303   -23361.256   -24748.748    64.798798    306.72307    940.62727   -1052.9539    42.264275    42.264275    84.528551 
   47900    1345.8365   -23360.848   -24752.379    166.95309   -370.43345    389.18851    482.10423    42.264707    42.264707    84.529414 
   48000     1345.385   -23360.515   -24751.578    178.61834    1331.2725    889.74459   -1685.1621    42.265413    42.265413    84.530826 
   48100      1355.25   -23360.176   -24761.439    59.456996    464.71093     213.4376   -499.77754    42.267115    42.267115     84.53423 
   48200    1348.7222   -23359.846    -24754.36   -2.7696276    118.36208    57.145932    -183.8169     42.26974     42.26974    84.539481 
   48300    1340.8365   -23359.445   -24745.805    304.61716   -484.80573    19.214153    1379.4431    42.272822    42.272822    84.545643 
   48400    1340.9286   -23359.013   -24745.469    381.50399     490.6678    54.531032    599.31313    42.276594    42.276594    84.553188 
   48500    1349.2403   -23358.482   -24753.531   -247.84897     343.6686   -431.02124   -656.19427    42.281155    42.281155     84.56231 
   48600    1353.8375   -23357.976   -24757.779   -493.63302   -164.93838    279.84692   -1595.8076    42.284389    42.284389    84.568778 
   48700     1357.428   -23357.548   -24761.063   -951.86523   -710.39149   -469.01008   -1676.1941    42.285403    42.285403    84.570806 
   48800    1347.3411   -23357.093   -24750.179   -224.64492   -5.9089787    86.981432    -755.0072    42.284063    42.284063    84.568125 
   48900    1347.1484   -23356.605   -24749.492   -520.96504   -325.28578    -154.5331   -1083.0763    42.281587    42.281587    84.563174 
   49000    1354.6861   -23356.086   -24756.766    -56.52882   -692.73282    246.69259    276.45378    42.277679    42.277679    84.555359 
   49100    1359.9264   -23355.655   -24761.753   -184.88027    260.73187    141.29374   -956.66641    42.273383    42.273383    84.546767 
   49200    1349.8734   -23355.352   -24751.056    156.10289   -25.250154    855.94688   -362.38804    42.268736    42.268736    84.537472 
   49300    1356.6103   -23355.034   -24757.704    349.33486    76.565802     653.5327    317.90609    42.265241    42.265241    84.530481 
   49400    1361.6482   -23354.841    -24762.72    116.22912    605.46972    145.34446   -402.12682    42.263181    42.263181    84.526363 
   49500    1356.1554   -23354.792   -24756.992     529.9939    843.42606    154.13799    592.41766    42.262166    42.262166    84.524332 
   49600    1351.9725   -23354.826     -24752.7    393.00708    1357.1118    381.96943   -560.05998    42.263461    42.263461    84.526923 
   49700    1357.5909   -23354.832   -24758.516    318.22001    265.42157    234.22948    455.00898    42.267365    42.267365     84.53473 
   49800    1357.5713   -23354.827   -24758.491   -33.294071   -472.69276    614.05163   -241.24109    42.273186    42.273186    84.546373 
   49900    1353.8813   -23354.851   -24754.699   -40.649249   -434.81681    644.50706     -331.638    42.278648    42.278648    84.557297 
   50000    1347.1096   -23354.998   -24747.845   -159.09173   -492.44237    566.99939   -551.83221    42.282853    42.282853    84.565706 
Loop time of 1406.6 on 1 procs for 50000 steps with 8000 atoms

Pair  time (%) = 1266.97 (90.0729)
Neigh time (%) = 98.9613 (7.03547)
Comm  time (%) = 8.24636 (0.58626)
Outpt time (%) = 0.621235 (0.0441656)
Other time (%) = 31.8068 (2.26125)

Nlocal:    8000 ave 8000 max 8000 min
Histogram: 1 0 0 0 0 0 0 0 0 0
Nghost:    8258 ave 8258 max 8258 min
Histogram: 1 0 0 0 0 0 0 0 0 0
Neighs:    270377 ave 270377 max 270377 min
Histogram: 1 0 0 0 0 0 0 0 0 0

Total # of neighbors = 270377
Ave neighs/atom = 33.7971
Neighbor list builds = 5000
Dangerous builds = 0
unfix		1

# Melt half the system
region  liquid block INF INF INF INF INF ${nzhalf}
region  liquid block INF INF INF INF INF 10
group	liquid_group region liquid
4012 atoms in group liquid_group

# Heat up one side to Tmelt to make sure it is melted
fix 2 liquid_group npt temp ${Tmelt} ${Tmelt} 1 z 0 0 10 drag 1.0
fix 2 liquid_group npt temp 2000 ${Tmelt} 1 z 0 0 10 drag 1.0
fix 2 liquid_group npt temp 2000 2000 1 z 0 0 10 drag 1.0
run		${eqsteps}
run		50000
Memory usage per processor = 5.95825 Mbytes
Step Temp TotEng PotEng Press Pxx Pyy Pzz Lx Ly Lz 
   50000    1347.1096   -23354.998   -24747.845   -159.09173   -492.44237    566.99939   -551.83221    42.282853    42.282853    84.565706 
   50100    1363.7874   -23352.877   -24762.967   -496.24094   -597.01912    578.20881   -1469.9125    42.282853    42.282853    84.565435 
   50200    1361.2715   -23347.454   -24754.943   -207.93478    97.196466   -164.45555   -556.54525    42.282853    42.282853    84.564597 
   50300     1352.369   -23341.016     -24739.3    107.24751    433.10016    741.55815   -852.91577    42.282853    42.282853    84.563462 
   50400    1369.7393   -23335.142   -24751.387    58.285609    73.401237    56.247285    45.208304    42.282853    42.282853    84.561926 
   50500    1366.6759   -23329.421   -24742.498     462.1809    676.55089    811.17857   -101.18675    42.282853    42.282853    84.560509 
   50600    1372.3715   -23323.243   -24742.209    88.652597    353.28506    167.61345   -254.94072    42.282853    42.282853    84.559074 
   50700    1381.0648   -23316.706   -24744.661    481.96456    400.71573    789.43965    255.73829    42.282853    42.282853    84.557618 
   50800    1378.6023   -23310.008   -24735.416    811.72998    657.76657    930.09382    847.32955    42.282853    42.282853    84.556269 
   50900    1373.9692   -23303.223   -24723.841    873.31766    572.75287    1031.9639    1015.2362    42.282853    42.282853    84.555198 
   51000    1384.6701   -23296.422   -24728.104    937.64985    1287.6912    1134.7476    390.51073    42.282853    42.282853    84.554411 
   51100    1378.6755   -23289.584   -24715.068    1282.6768    1493.6745    793.20359    1561.1523    42.282853    42.282853    84.553814 
   51200    1380.6723   -23282.674   -24710.223    1428.2898    1382.3231    1009.3667    1893.1796    42.282853    42.282853    84.553924 
   51300    1393.7953   -23275.745   -24716.862    1337.5563    653.89673    1513.3694    1845.4028    42.282853    42.282853    84.554933 
   51400    1402.6671   -23268.742   -24719.033    1251.4762    1778.9646    1268.0555    707.40843    42.282853    42.282853    84.556835 
   51500    1404.4685   -23261.736   -24713.888    1434.4762    1099.0949    2049.0008    1155.3329    42.282853    42.282853    84.559262 
   51600     1403.013   -23254.713   -24705.361    1527.8382    1407.0636    2020.6143    1155.8366    42.282853    42.282853    84.562234 
   51700    1412.2009   -23247.711   -24707.859    1668.4573    2495.1003    1563.3737    946.89779    42.282853    42.282853    84.565884 
   51800    1396.7244   -23240.672   -24684.817    2185.1829    2002.5314    2795.6627    1757.3547    42.282853    42.282853    84.570267 
   51900    1403.8238   -23233.632   -24685.119    2239.8314    1893.0547    2906.8821    1919.5575    42.282853    42.282853    84.575477 
   52000    1414.5834   -23226.632   -24689.243    2571.3767     1886.398    2666.9678    3160.7643    42.282853    42.282853    84.581657 
   52100    1425.5932   -23219.572   -24693.567    2082.3756    2415.6573     1330.933    2500.5364    42.282853    42.282853    84.589383 
   52200    1429.4506   -23212.504   -24690.488    2005.4336    1820.3361    1846.2773    2349.6874    42.282853    42.282853    84.598591 
   52300    1430.8436   -23205.395   -24684.818    2300.8213     2850.365    2599.6762    1452.4227    42.282853    42.282853    84.608965 
   52400    1429.7247   -23198.268   -24676.535    2459.7161    2730.0871     2495.787    2153.2741    42.282853    42.282853    84.620246 
   52500    1432.7063    -23191.17   -24672.519    2666.9756    2197.8434    2950.3041    2852.7793    42.282853    42.282853    84.632621 
   52600    1434.1705   -23184.005   -24666.869    2448.4204    3426.5957    2117.6383    1801.0271    42.282853    42.282853     84.64622 
   52700    1442.8175   -23176.881   -24668.685    2510.0879    1590.9942    3036.8264    2902.4433    42.282853    42.282853    84.660689 
   52800    1454.7719   -23169.743   -24673.907    2281.5268    1436.6788    1881.0032    3526.8983    42.282853    42.282853    84.676451 
   52900    1443.3566   -23162.646   -24655.007    2909.7429    3225.4977    2825.8838    2677.8471    42.282853    42.282853    84.693844 
   53000    1455.9272   -23155.518   -24660.876    2568.7104    2759.4919    2748.2731    2198.3661    42.282853    42.282853    84.712469 
   53100    1464.6732   -23148.394   -24662.796    2404.0662    2896.3503    1679.1735    2636.6748    42.282853    42.282853    84.732083 
   53200    1454.4525   -23141.221   -24645.055    2652.5247    2940.6657    3189.2261    1827.6825    42.282853    42.282853    84.752809 
   53300    1454.3786   -23134.039   -24637.797    2616.2631    2891.1905    2378.7891    2578.8098    42.282853    42.282853    84.774254 
   53400    1465.5694   -23126.893   -24642.221    2510.9789    2929.1085    2219.0803    2384.7479    42.282853    42.282853    84.796584 
   53500    1450.3837   -23119.751   -24619.377    3077.5992    3414.9677    2658.6632    3159.1665    42.282853    42.282853    84.819948 
   53600    1464.6305   -23112.626   -24626.983    2639.8774    2672.4241    3005.4417    2241.7665    42.282853    42.282853     84.84453 
   53700    1476.0395   -23105.452   -24631.606    2355.6224    1617.5227    3047.7707    2401.5739    42.282853    42.282853    84.870095 
   53800    1476.9409   -23098.248   -24625.334    2316.4733     3508.781    1963.2343    1477.4045    42.282853    42.282853    84.896434 
   53900    1484.5192   -23091.063   -24625.985    2303.1674    2570.7733    2544.9919    1793.7371    42.282853    42.282853    84.923265 
   54000    1477.2639   -23083.894   -24611.314    2479.9234    2953.4798    2270.0194    2216.2709    42.282853    42.282853    84.950565 
   54100    1490.2733   -23076.698   -24617.569    2319.9126    2646.4549     2675.112     1638.171    42.282853    42.282853    84.978414 
   54200      1487.66   -23069.501    -24607.67    2312.8352    3289.2753    1999.6323     1649.598    42.282853    42.282853    85.006673 
   54300    1490.5458   -23062.349   -24603.502     2585.273    3212.9369    2525.7706    2017.1116    42.282853    42.282853    85.035313 
   54400    1497.1354   -23055.191   -24603.157    2410.9318     2635.061    2576.9213    2020.8132    42.282853    42.282853    85.064474 
   54500    1502.7951   -23047.953   -24601.771    2294.6015    2269.1012    2605.0236    2009.6797    42.282853    42.282853    85.094106 
   54600    1500.8806    -23040.78   -24592.619    2245.4209    3114.9838     1917.606    1703.6728    42.282853    42.282853    85.124152 
   54700    1508.4825   -23033.565   -24593.263     2101.343    2890.3107    2821.9416    591.77671    42.282853    42.282853    85.154444 
[...]
  336300    1333.9473   -23383.753    -24762.99   -63.915137    5.2456965    930.63249   -1127.6236    42.387505    42.387505    84.052642 
  336400    1343.4574   -23383.771   -24772.841    -317.2044   -414.16633    117.82928   -655.27614    42.387904    42.387904    84.035991 
  336500    1337.2176   -23383.788   -24766.407    321.21955   -847.24918    1104.4531    706.45471    42.388214    42.388214    83.966228 
  336600    1328.5547   -23383.763   -24757.424    554.19203    71.132352    846.26143    745.18231    42.388487    42.388487    83.945571 
  336700    1332.4539   -23383.768   -24761.461    512.86979    1180.8943    332.59528    25.119817    42.388818    42.388818    83.964329 
  336800    1347.1695   -23383.782   -24776.691   -232.29812   -794.80923   -283.42548    381.34035    42.389368    42.389368    83.984049 
  336900    1331.9319   -23383.805   -24760.959     98.71351    471.48498   -249.77353     74.42908    42.389695    42.389695    84.030866 
  337000    1324.2931   -23383.769   -24753.024    87.973341    74.138897    109.63005    80.151072    42.389807    42.389807    84.062882 
  337100    1334.4681   -23383.784    -24763.56   -389.40412   -811.50955   -304.79766   -51.905145    42.389792    42.389792     84.04721 
  337200    1336.0384   -23383.801     -24765.2   -170.75876    379.15187   -667.81885    -223.6093    42.389618    42.389618    84.014152 
  337300    1331.3723    -23383.78   -24760.355     339.7805    252.54742   -239.30727    1006.1013    42.389382    42.389382    83.986854 
  337400    1348.5879   -23383.786   -24778.161   -197.67234   -140.14422   -416.24815   -36.624648    42.389138    42.389138    84.004842 
  337500    1343.6225   -23383.789    -24773.03   -301.91853    -212.6674    624.21342   -1317.3016    42.388766    42.388766    84.029634 
  337600    1335.3371   -23383.798   -24764.472     93.98865    144.87779   -583.20558    720.29374    42.388386    42.388386    84.001027 
  337700    1361.8914   -23383.803   -24791.934   -469.70388   -904.68401    865.43429   -1369.8619    42.387994    42.387994    83.986823 
  337800    1337.1069   -23383.865   -24766.369    583.17933    1367.7801    547.72671   -165.96878    42.387791    42.387791    83.910699 
  337900    1345.9284   -23383.826   -24775.451    1042.5563    2004.7731    244.92149    877.97433    42.387959    42.387959    83.842308 
  338000    1332.7817   -23383.841   -24761.873    1026.4537     -447.888    2102.2648    1424.9842    42.388506    42.388506    83.854025 
  338100    1342.6794    -23383.95   -24772.216    600.03974   -492.57512    1172.1514    1120.5429    42.389238    42.389238    83.944705 
  338200    1340.0349   -23383.948    -24769.48   -298.40368     81.02431   -228.23157   -748.00378    42.389951    42.389951    84.075053 
  338300    1342.4765   -23383.883   -24771.939   -1079.8443   -50.032802   -1368.7337   -1820.7665    42.390458    42.390458    84.138724 
  338400    1330.6731   -23383.954   -24759.806   -243.14878    506.93064   -135.66197    -1100.715    42.390611    42.390611     84.08796 
  338500    1325.0307   -23384.205   -24754.223    929.45367    1134.3356    1370.4817    283.54374    42.390766    42.390766    83.923918 
  338600    1345.9577   -23384.074    -24775.73    1166.5565    1191.9801    814.18225    1493.5071    42.391243    42.391243    83.779258 
  338700    1358.9126   -23384.037   -24789.087    880.38017    989.08234    1183.5986    468.45961    42.392015    42.392015    83.762785 
  338800    1360.4475   -23384.085   -24790.722    219.67473    173.28602      305.648    180.09019    42.393119    42.393119    83.824737 
  338900    1344.3058   -23384.153   -24774.101    78.847773    269.85947    134.28772   -167.60387    42.394285    42.394285    83.926218 
  339000    1330.5512   -23384.118   -24759.844    101.30744    12.023107   -268.25853    560.15773    42.395272    42.395272    84.011869 
  339100     1362.862   -23384.106    -24793.24   -967.68512   -1338.8351   -172.27737   -1391.9428    42.395964    42.395964    84.052015 
  339200    1346.4428   -23384.105   -24776.262   -694.58629   -1048.0514    -340.9354    -694.7721    42.396351    42.396351    84.031622 
  339300     1327.589    -23384.13   -24756.793    445.70256    247.73439   -132.35956    1221.7328    42.396469    42.396469      83.9732 
  339400    1351.0009    -23384.14    -24781.01    206.98246   -277.19117    662.53546     235.6031    42.396546    42.396546     83.92235 
  339500    1338.6742    -23384.12   -24768.245    394.99735    735.66957    384.22695    65.095533     42.39672     42.39672    83.904506 
  339600    1344.7885    -23384.12   -24774.566    149.07815    299.32163    551.15068   -403.23787    42.397031    42.397031    83.914815 
  339700    1342.7396   -23384.124   -24772.452    264.47955   -430.04981    2044.8602   -821.37171    42.397416    42.397416    83.900923 
  339800    1336.2153   -23384.121   -24765.703    787.16585    633.03802    670.23224    1058.2273    42.397928    42.397928     83.87375 
  339900    1349.0725   -23384.168   -24779.044   -26.697158    199.00455   -489.20967    210.11365    42.398506    42.398506    83.915722 
  340000    1345.6259   -23384.171   -24775.483   -178.59091   -160.37937   -287.39149   -88.001875    42.398965    42.398965    83.986192 
  340100    1358.4045   -23384.158   -24788.683   -1089.7218    156.54849   -1926.4154   -1499.2985    42.399251    42.399251    84.047465 
  340200    1343.7461    -23384.16   -24773.529   -498.09967    119.45164   -1373.1105   -240.64019    42.399252    42.399252    84.032791 
  340300    1354.0454   -23384.168   -24784.186    -773.9421   -850.48811    -1301.206   -170.13216    42.399024    42.399024    84.029849 
  340400    1339.8536   -23384.149   -24769.493   -484.27209    -10.53675   -1037.0647    -405.2148    42.398518    42.398518    84.043384 
  340500    1338.3573   -23384.151   -24767.948   -44.340158   -158.77599    117.46819   -91.712672    42.397899    42.397899    84.026324 
  340600    1326.3479   -23384.146   -24755.526   -32.798416   -199.73103   -1015.7557    1117.0915    42.397254    42.397254    84.022956 
  340700    1330.9909   -23384.155   -24760.335   -240.25379   -35.364987   -529.59945   -155.79693    42.396477    42.396477    84.034794 
  340800    1338.3315   -23384.154   -24767.924   -302.39963   -54.258506   -1485.7096    632.76925    42.395623    42.395623    84.023806 
  340900    1351.7787   -23384.174   -24781.849   -997.64854   -517.69741   -986.46234   -1488.7859    42.394533    42.394533    84.045749 
  341000    1345.7243   -23384.172   -24775.586   -611.40883   -2189.3653     785.8823    -430.7435    42.393365    42.393365    84.029067 
  341100    1340.8624   -23384.174   -24770.561   -60.850732    222.10507    -160.3967   -244.26057    42.392227    42.392227     84.00939 
  341200    1345.7575   -23384.175   -24775.623    304.16529    1197.9563     251.5483   -537.00876     42.39121     42.39121    83.991429 
  341300    1336.6887   -23384.188    -24766.26    552.05765    276.48421    1419.4255   -39.736791    42.390567    42.390567    83.955249 
  341400    1334.9475   -23384.179    -24764.45    754.95045    414.87022    584.02863    1265.9525    42.390236    42.390236    83.923297 
  341500    1341.9238   -23384.209   -24771.693    497.16536   -291.38555     727.1214    1055.7602    42.390071    42.390071    83.967874 
  341600    1360.3197   -23384.271   -24790.776   -980.92256   -1342.3493   -1193.9798   -406.43854    42.389891    42.389891     84.06446 
  341700    1336.4243   -23384.241   -24766.039   -757.72765    66.827817   -1867.7495   -472.26127    42.389376    42.389376    84.152002 
  341800    1338.0155   -23384.301   -24767.745   -1161.8926   -144.60026   -1082.1079   -2258.9698    42.388618    42.388618    84.141052 
  341900     1346.541   -23384.325   -24776.584   -251.21948     -632.638   -622.33365    501.31321    42.387741    42.387741    84.016687 
  342000    1346.2676   -23384.269   -24776.245    419.05824   -339.02465   -469.72781    2065.9272    42.386864    42.386864    83.947126 
  342100    1355.1873   -23384.287   -24785.486    -175.4842   -261.62456    431.49089   -696.31892    42.386121    42.386121    83.988187 
  342200     1337.311    -23384.28   -24766.995   -1.8632871   -184.92529   -7.6743685     187.0098    42.385501    42.385501    84.011536 
  342300    1338.4017   -23384.285   -24768.128    267.62683   -340.82422    648.07915    495.62555    42.384981    42.384981     84.02972 
  342400    1330.2201   -23384.299   -24759.683   -215.90782    120.36249    -208.9126   -559.17335    42.384577    42.384577    84.073361 
  342500    1333.2804   -23384.293   -24762.841   -79.469282    656.56985   -344.17107   -550.80663    42.384215    42.384215    84.066202 
  342600    1330.9363   -23384.367   -24760.491    95.474147     626.2691    222.59906   -562.44571    42.383894    42.383894    83.986082 
  342700    1344.7433   -23384.314   -24774.714    472.98246    313.89968    26.825342    1078.2223    42.383637    42.383637    83.913354 
  342800    1347.4539   -23384.327    -24777.53    584.53348   -331.76167    1750.4634    334.89864    42.383568    42.383568    83.924939 
  342900    1341.0453    -23384.33   -24770.906    352.61266    334.99716    458.44012     264.4007    42.383812    42.383812    83.972479 
  343000    1332.9416   -23384.348   -24762.545    61.546298   -23.425349   -565.95043    774.01467    42.384089    42.384089    84.021174 
  343100    1335.7731   -23384.385    -24765.51    -503.2743   -542.44543   -1417.2272    449.84969    42.384172    42.384172    84.100622 
  343200    1323.1713   -23384.364   -24752.459    -1038.782   -892.83436    144.13307   -2367.6448    42.383806    42.383806      84.1885 
  343300    1325.5133   -23384.425   -24754.942   -472.21891   -478.58029   -387.34582   -550.73061    42.383143    42.383143    84.142315 
  343400    1329.9136   -23384.398   -24759.465    209.66264   -418.25698   -476.29094    1523.5358    42.382279    42.382279    84.053294 
  343500    1328.9117   -23384.386   -24758.417    459.22743    227.02425    572.12875    578.52928    42.381314    42.381314    84.038986 
  343600    1349.3475   -23384.393   -24779.554    53.798896    971.71079   -627.78614   -182.52796    42.380643    42.380643    84.052829 
  343700    1331.2466   -23384.384   -24760.829    141.75356    423.30474   -12.060358    14.016282    42.380188    42.380188    84.049346 
  343800     1342.398   -23384.396   -24772.371   -189.87343   -656.13125    470.90213   -384.39118    42.379806    42.379806    84.018882 
  343900     1341.968   -23384.397   -24771.928    389.10734    171.65739    500.97469    494.68993    42.379454    42.379454    83.978819 
  344000    1340.4515   -23384.401   -24770.364    439.71519    311.55783     701.0999    306.48783    42.379174    42.379174    83.982685 
  344100    1336.4449   -23384.419   -24766.239    294.89575   -26.400938     -130.301    1041.3892     42.37901     42.37901    84.027203 
  344200    1339.1371   -23384.402   -24769.005   -335.38398    307.42396    -2.387946    -1311.188    42.378811    42.378811    84.087107 
  344300    1340.7619   -23384.444   -24770.728   -307.60395   -367.20813    136.20668   -691.81041    42.378658    42.378658    84.050197 
  344400    1332.8286   -23384.531   -24762.612    510.33785    824.89047    1147.8667   -441.74358    42.378548    42.378548    83.952909 
  344500    1340.3602   -23384.478   -24770.346    934.61652    743.35062     1326.622    733.87694    42.378723    42.378723    83.851056 
  344600    1336.9036   -23384.512   -24766.806    1267.7312   -9.1163553    1518.5873    2293.7226    42.379189    42.379189    83.849305 
  344700    1334.2966   -23384.572   -24764.171    618.46548    338.46135    1507.5336    9.4014348    42.379869    42.379869    83.971839 
  344800     1358.371   -23384.579    -24789.07    -1118.187   -1431.2954    -246.4728   -1676.7927    42.380658    42.380658    84.081835 
  344900    1328.4996   -23384.521   -24758.125     -343.627    -622.2268   -45.036151   -363.61804    42.381167    42.381167    84.113629 
  345000    1337.6324   -23384.536   -24767.583   -492.58823   -528.94392   -295.06143   -653.75933     42.38143     42.38143    84.090642 
  345100    1349.4317   -23384.595   -24779.843   -353.28016   -231.07075    129.95923   -958.72895     42.38151     42.38151    84.021463 
  345200    1333.6544   -23384.616    -24763.55    1025.3242     926.3735    1298.2661    851.33311    42.381701    42.381701    83.917491 
  345300    1341.3989   -23384.567   -24771.509     747.9367    377.05578    1096.7068    770.04753    42.382205    42.382205    83.881701 
  345400    1339.8382   -23384.579   -24769.907    695.85097    1237.8518    540.83562    308.86554    42.382868    42.382868    83.908034 
  345500    1336.3378   -23384.691     -24766.4    239.17934   -731.55211     743.9076    705.18252    42.383602    42.383602     83.98488 
  345600    1342.5167   -23384.709   -24772.807   -183.99738    29.276348   -456.57961   -124.68888    42.384221    42.384221    84.111038 
  345700    1345.0008   -23384.675   -24775.341   -1450.9161   -593.59008   -1537.7878   -2221.3703    42.384595    42.384595    84.218901 
  345800    1338.0163   -23384.768   -24768.213   -1248.9503   -1026.7752   -936.88329   -1783.1924    42.384574    42.384574    84.181356 
  345900     1350.558   -23384.944   -24781.356    -522.1964   -1373.6015    39.705325   -232.69307     42.38422     42.38422    84.012418 
  346000    1329.4094   -23384.845    -24759.39    1153.1139    1163.5376    846.60762    1449.1966    42.383784    42.383784    83.870857 
  346100    1338.5717   -23384.818   -24768.837    1424.3518    1583.3394    2164.3131    525.40309    42.383808    42.383808    83.816623 
  346200    1342.7602   -23384.854   -24773.204    1036.4177    1001.0599   -173.72226    2281.9154    42.384406    42.384406    83.828786 
  346300     1353.137   -23384.983   -24784.062    199.85435   -1113.6423    667.69123    1045.5141    42.385095    42.385095    83.948323 
  346400    1336.3403   -23385.044   -24766.756   -493.18325   -443.50078   -449.68564   -586.36332    42.385649    42.385649    84.100937 
  346500     1332.672   -23384.978   -24762.897   -1479.6271   -1521.8356   -1911.5501   -1005.4956    42.385882    42.385882     84.20189 
  346600    1339.2362   -23384.955   -24769.661   -1481.2181   -1447.1448   -2870.1032   -126.40632    42.385521    42.385521    84.217081 
  346700    1324.7192   -23384.979   -24754.675    -892.7856   -1003.6221   -1125.0585   -549.67615     42.38448     42.38448    84.193421 
  346800    1342.1558   -23385.056   -24772.781   -934.44776    358.34675   -2353.6957   -807.99433    42.383127    42.383127     84.12256 
  346900    1329.1149   -23385.082   -24759.323    356.90654    757.37681    695.22836   -381.88555    42.381592    42.381592    84.019506 
  347000    1354.6472   -23385.074   -24785.714    145.54303     260.1039   -807.35135    983.87654    42.380321    42.380321     83.92763 
  347100     1343.365   -23385.064   -24774.039    650.44703    215.90437   -111.26451    1846.7012    42.379344    42.379344    83.925931 
  347200     1342.696   -23385.131   -24773.414   -31.183229   -174.10664    859.28669   -778.72973    42.378596    42.378596    84.023822 
  347300    1336.5358   -23385.109   -24767.022   -270.47845    86.446943   -618.68897   -279.19334    42.378003    42.378003    84.100165 
  347400    1344.1729   -23385.089   -24774.899   -1008.9756   -1095.1793   -1214.9431   -716.80429    42.377387    42.377387    84.131915 
  347500    1328.3899   -23385.087   -24758.578   -154.05867    82.136579   -427.05002   -117.26256    42.376633    42.376633    84.127434 
  347600    1331.0906   -23385.088   -24761.371   -483.03289    -1044.571    3.9484738   -408.47618    42.375784    42.375784    84.137318 
  347700    1331.2876   -23385.124   -24761.611    -215.8175   -1522.0953    1398.9474   -524.30462    42.374747    42.374747    84.114256 
  347800    1339.5717   -23385.155   -24770.208    7.4344267   -1503.4516    536.20602    989.54882    42.373788    42.373788    84.036557 
  347900    1334.0161   -23385.118   -24764.426    564.90539    421.90166    1167.0397    105.77483    42.372905    42.372905    84.001399 
  348000    1346.3082   -23385.121   -24777.138    367.81542    909.63859   -575.01263    768.82031     42.37247     42.37247     83.97377 
  348100    1334.4278   -23385.117   -24764.851    843.96792    946.26967    936.84118     648.7929    42.372366    42.372366    83.974509 
  348200    1349.1476   -23385.122   -24780.076    21.487784    995.33254   -963.64326    32.774071    42.372626    42.372626    83.992388 
  348300    1350.9063   -23385.135   -24781.907    115.65638    516.38313    400.65904   -570.07302    42.372953    42.372953    84.011394 
  348400    1331.7079   -23385.118    -24762.04    556.61042    811.42888      101.157    757.24537    42.373422    42.373422    84.011167 
  348500    1330.3121   -23385.125   -24760.604    445.61083    758.42229   -220.31991     798.7301     42.37395     42.37395    84.027072 
  348600    1337.6911   -23385.133   -24768.241   -394.13393   -489.12653   -770.88395    77.608703    42.374466    42.374466    84.067101 
  348700    1322.8222   -23385.136   -24752.871    88.405058   -1016.3942    645.10218    636.50722    42.374727    42.374727    84.105329 
  348800    1340.4159   -23385.159   -24771.085   -641.66857   -916.02692   -1281.4287    272.44987    42.374818    42.374818    84.164502 
  348900    1335.3824    -23385.14   -24765.862   -971.39745   -444.86173    -1410.415   -1058.9157    42.374587    42.374587    84.200978 
  349000    1330.5102   -23385.191   -24760.875   -596.09801   -1055.4563   -104.90725   -627.93051     42.37403     42.37403    84.141846 
  349100    1339.6761   -23385.209    -24770.37    87.694822   -221.33851    387.71235    96.710625    42.373266    42.373266    84.051709 
  349200    1350.3705   -23385.183   -24781.401    192.27388    500.31981    344.79259   -268.29076    42.372586    42.372586    84.005021 
  349300    1334.8957   -23385.174   -24765.392    693.20228    760.15437    1437.5784   -118.12593    42.372152    42.372152    83.997526 
  349400    1340.6387   -23385.175    -24771.33    147.00924    445.32195    296.27737   -300.57158    42.372092    42.372092    84.016968 
  349500    1336.9599   -23385.175   -24767.527       262.83   -808.70042    333.27565    1263.9148    42.372137    42.372137    84.030434 
  349600     1326.954   -23385.197   -24757.203   -82.613723   -853.49193    563.99418    41.656576    42.372125    42.372125    84.083223 
  349700    1338.7574   -23385.187   -24769.398   -552.33447   -668.69008   -151.38208   -836.93124    42.372015    42.372015     84.12998 
  349800    1340.1056     -23385.2   -24770.805   -209.37811   -366.39008    114.00808   -375.75232    42.371658    42.371658    84.121177 
  349900    1342.0854   -23385.226   -24772.877    -258.1047   -732.16156    541.58408   -583.73663    42.371161    42.371161    84.063918 
  350000     1347.179   -23385.218   -24778.136    183.74277    349.61957   -441.91836    643.52712     42.37067     42.37067    83.993916 
Loop time of 5557.79 on 1 procs for 200000 steps with 8000 atoms

Pair  time (%) = 5006.98 (90.0894)
Neigh time (%) = 395.565 (7.11729)
Comm  time (%) = 32.4766 (0.584343)
Outpt time (%) = 2.48578 (0.0447259)
Other time (%) = 120.285 (2.16426)

Nlocal:    8000 ave 8000 max 8000 min
Histogram: 1 0 0 0 0 0 0 0 0 0
Nghost:    8281 ave 8281 max 8281 min
Histogram: 1 0 0 0 0 0 0 0 0 0
Neighs:    270964 ave 270964 max 270964 min
Histogram: 1 0 0 0 0 0 0 0 0 0

Total # of neighbors = 270964
Ave neighs/atom = 33.8705
Neighbor list builds = 20000
Dangerous builds = 0
unfix		4
