LAMMPS (13 Jan 2014)
dimension       3
boundary        p p p
units           metal

atom_style	atomic
neighbor	0.3 bin
neigh_modify	every 10 delay 0 check no

# Number of steps for the equilibration steps
variable        eqsteps equal 50000

# Number of steps to run our NPH simulation
variable        simsteps equal 200000

# Our trial melting temperature
variable	T equal 850.0
variable	T2 equal 2*${T}
variable	T2 equal 2*850

# Some high temperature to melt the crystal
variable	Tmelt equal 2000.0

#System size
variable	nx equal 10
variable	ny equal 10
variable	nz equal 20
variable	nzhalf equal ${nz}*0.5
variable	nzhalf equal 20*0.5
variable	a equal 4.050
variable	length equal ${nz}*${a}
variable	length equal 20*${a}
variable	length equal 20*4.05

lattice		fcc ${a}
lattice		fcc 4.05
Lattice spacing in x,y,z = 4.05 4.05 4.05

region         box block 0 ${nx} 0 ${ny} 0 ${nz}
region         box block 0 10 0 ${ny} 0 ${nz}
region         box block 0 10 0 10 0 ${nz}
region         box block 0 10 0 10 0 20
create_box     1 box
Created orthogonal box = (0 0 0) to (40.5 40.5 81)
  1 by 1 by 1 MPI processor grid
create_atoms   1 box
Created 8000 atoms

mass		1 26.9815

pair_style	eam/alloy
pair_coeff	* * Al_potential.alloy Al

velocity	all create ${T2} 1337
velocity	all create 1700 1337

# Create a dump file. This can be visualized with
# e.g. OVITO (http://www.ovito.org/)
dump		id all atom 1000 atomsdump

# 1 fs timestep
timestep	0.001
thermo_style	custom step temp etotal pe press pxx pyy pzz lx ly lz

# output every 100th timestep
thermo		100

# Equilibration the whole system to the trial melting temperature
fix		1 all npt temp ${T} ${T} 1 iso 0 0 3 drag 1.0
fix		1 all npt temp 850 ${T} 1 iso 0 0 3 drag 1.0
fix		1 all npt temp 850 850 1 iso 0 0 3 drag 1.0
run		${eqsteps}
run		50000
Memory usage per processor = 5.95314 Mbytes
Step Temp TotEng PotEng Press Pxx Pyy Pzz Lx Ly Lz 
       0         1700   -25419.534   -27177.252    10067.275    9938.8571    9925.5732    10337.393         40.5         40.5           81 
     100    822.00313    -25436.77   -26286.681    26128.656    26405.861    26132.555    25847.552    40.588189    40.588189    81.176378 
     200    797.41358   -25461.433   -26285.921    15052.718    15599.666    15005.772    14552.715    40.795316    40.795316    81.590633 
     300    803.05542   -25471.235   -26301.556    5987.9026    5935.5713    5843.9469    6184.1898    40.962446    40.962446    81.924892 
     400    792.11626   -25471.721   -26290.731    870.76984    516.33759    1391.3462    704.62577    41.070402    41.070402    82.140804 
     500    779.01441   -25468.867   -26274.331   -2162.6971   -2070.3432    -1940.563   -2477.1851     41.13992     41.13992    82.279839 
     600    780.12089   -25465.061   -26271.669   -3783.9087   -3589.1432   -3914.7348   -3847.8481    41.175448    41.175448    82.350895 
     700    773.59145   -25461.553   -26261.409   -3776.3447   -3672.2866   -3890.5329   -3766.2147    41.180101    41.180101    82.360202 
     800    789.69394   -25458.531   -26275.036   -3083.6157   -2905.5468   -3453.9283    -2891.372    41.161283    41.161283    82.322566 
     900    786.19618   -25455.792   -26268.681   -1323.8379   -1258.6614   -1436.5306   -1276.3216    41.128798    41.128798    82.257597 
    1000    798.79836   -25452.952   -26278.871     71.22232    161.34741    151.06009   -98.740542    41.095057    41.095057    82.190115 
    1100    806.81956   -25449.994   -26284.207    1238.9036    1234.6985    1291.5206    1190.4915    41.069965    41.069965    82.139929 
    1200    804.28217   -25447.191    -26278.78    1898.5439    2081.9715    2149.1407    1464.5195    41.058776    41.058776    82.117552 
    1300     789.8995   -25444.663   -26261.381    2209.7193    2287.9077    2111.0908    2230.1594    41.061631    41.061631    82.123262 
    1400    803.09297   -25442.268   -26272.627    1256.7966    1413.3087    1082.4412    1274.6401    41.076058    41.076058    82.152116 
    1500    797.23978   -25439.805   -26264.112    406.93404    436.28183    526.10308    258.41722    41.096278    41.096278    82.192556 
    1600    798.97291    -25437.13   -26263.229   -450.00099   -632.53699   -452.13752   -265.32845    41.115846    41.115846    82.231693 
    1700      790.368   -25434.396   -26251.599   -776.82748   -929.38066   -474.72493   -926.37685    41.129599    41.129599    82.259197 
    1800    796.67957    -25431.63   -26255.359   -1192.5469   -1364.4983   -1273.6153   -939.52716    41.135238    41.135238    82.270476 
    1900    798.97324   -25428.918   -26255.018   -1001.4107   -1094.7786   -1136.3293   -773.12424    41.132504    41.132504    82.265008 
    2000     805.7618   -25426.271    -26259.39   -646.99883   -916.62931    -202.3543   -822.01287    41.123776    41.123776    82.247552 
    2100    798.42985   -25423.631   -26249.169    186.23314    271.98284     243.9327    42.783867    41.112788    41.112788    82.225576 
    2200    809.41886   -25421.006   -26257.906    445.78358    760.50857    436.54783    140.29434    41.103605    41.103605     82.20721 
    2300    809.18439   -25418.467   -26255.125    711.79015    375.13214    371.31578    1388.9225     41.09881     41.09881    82.197619 
    2400    812.78921    -25416.03   -26256.415    686.62762    621.45543    695.90372    742.52369    41.099177    41.099177    82.198354 
    2500     817.8502   -25413.681   -26259.299    323.20349    409.37155    463.99537    96.243558    41.104533    41.104533    82.209066 
    2600    813.86266   -25411.366   -26252.861    209.02249    -180.0088    455.82192    351.25434    41.112794    41.112794    82.225587 
    2700    813.63685   -25409.086   -26250.347   -93.442572   -445.79321    141.75142    23.714071    41.121615    41.121615    82.243231 
    2800    805.78993   -25406.812    -26239.96    -308.1925    180.91649   -89.242691   -1016.2513    41.128942    41.128942    82.257885 
    2900    816.58402    -25404.51   -26248.819   -625.91825   -612.74731   -159.18179   -1105.8256    41.133096    41.133096    82.266193 
    3000    811.88911   -25402.248   -26241.702   -523.51076   -792.50693   -192.06376    -585.9616    41.133297    41.133297    82.266595 
    3100    810.28263   -25399.994   -26237.788   -206.04215   -358.46628    315.86795   -575.52812    41.130488    41.130488    82.260977 
    3200    819.06699   -25397.774    -26244.65   -199.83811   -419.16478   -58.517593   -121.83195    41.126077    41.126077    82.252155 
    3300      812.508   -25395.582   -26235.676    271.36769    533.71761    181.79547    98.589998    41.121592    41.121592    82.243184 
    3400    829.99411   -25393.424   -26251.598    130.21191    182.41747    286.04903   -77.830779    41.118786    41.118786    82.237571 
    3500    807.12637   -25391.369   -26225.899    729.04512    680.48007    781.32422    725.33106    41.118187    41.118187    82.236375 
    3600     826.1533   -25389.331   -26243.533    193.00481    170.37285    359.03683    49.604763    41.120739    41.120739    82.241479 
    3700    830.19326   -25387.366   -26245.746   -29.562951    165.40111   -225.80693    -28.28303    41.124787    41.124787    82.249574 
    3800    816.48475   -25385.472   -26229.678    159.63258    630.58338    188.95567   -340.64132    41.129241    41.129241    82.258483 
    3900    819.44674    -25383.56   -26230.828   -143.34436    164.55382   -283.52468   -311.06221    41.133868    41.133868    82.267735 
    4000    822.41081   -25381.607    -26231.94   -373.43012   -230.32539   -327.13147   -562.83351    41.137431    41.137431    82.274862 
    4100    819.39709   -25379.675   -26226.892   -266.82959   -69.634321   -387.24135   -343.61311     41.13875     41.13875      82.2775 
    4200    828.44653    -25377.75   -26234.324   -351.60487    219.94997   -625.58382   -649.18076    41.137923    41.137923    82.275845 
    4300    831.67272   -25375.901    -26235.81   -215.76518   -12.377209   -560.12128   -74.797044    41.135264    41.135264    82.270529 
    4400    819.72987   -25374.133   -26221.695    166.79259    472.69461    65.651996    -37.96885    41.131865    41.131865     82.26373 
    4500    822.35275   -25372.383   -26222.656    448.87669     697.0112    390.10191    259.51695    41.129428    41.129428    82.258857 
    4600    829.67761   -25370.641   -26228.488     312.7257    101.15411    246.16761    590.85537    41.129134    41.129134    82.258269 
    4700     839.4182   -25368.974   -26236.892    44.338842    195.36876    271.24819   -333.60042    41.131018    41.131018    82.262035 
    4800    840.28022   -25367.327   -26236.136   -268.46763   -242.92954   -171.55721   -390.91615     41.13435     41.13435    82.268701 
    4900     829.2708   -25365.733   -26223.159   -67.701751   -149.32925    142.04885   -195.82485    41.137765    41.137765    82.275531 
    5000    829.82611   -25364.158   -26222.158    1.8519274    18.659926    16.860639   -29.964782    41.140731    41.140731    82.281463 
    5100    825.77323   -25362.638   -26216.448   -65.602796   -300.44544   -60.913296    164.55035    41.142723    41.142723    82.285446 
    5200    825.20118   -25361.127   -26214.346   -22.550479   -227.86911    492.04331   -331.82564    41.143524    41.143524    82.287048 
    5300    831.17433   -25359.589   -26218.983   -78.797523   -104.94057   -107.78166    -23.67034    41.143488    41.143488    82.286977 
    5400    839.80347   -25358.093    -26226.41   -268.89241   -458.21692   -369.73079    21.270467    41.142374    41.142374    82.284748 
    5500    832.95282   -25356.637   -26217.871    49.154781    199.71103   -5.5650967   -46.681589    41.140558    41.140558    82.281115 
    5600     835.2994   -25355.196   -26218.855    74.410455   -383.15529     84.33512    522.05154     41.13924     41.13924     82.27848 
    5700       838.35   -25353.789   -26220.602    14.769251   -20.334072   -122.30375    186.94558    41.138898    41.138898    82.277797 
    5800    835.68757   -25352.443   -26216.504    223.64466   -135.61701    375.55394    430.99705    41.139407    41.139407    82.278814 
    5900    842.73103   -25351.111   -26222.454   -94.721367   -81.528458   -255.37927    52.743626    41.141339    41.141339    82.282678 
    6000    831.19681   -25349.827   -26209.245    125.52739    9.5005753     21.66481    345.41678    41.143733    41.143733    82.287466 
    6100    835.42441   -25348.502   -26212.291    8.2199776   -225.91525      17.9069    232.66828    41.146754    41.146754    82.293508 
    6200    829.42629    -25347.24   -26204.827   -12.603447   -353.17489    482.19218   -166.82763     41.14909     41.14909    82.298179 
    6300    845.08981    -25346.02   -26219.802   -381.04284   -391.30816   -193.14527    -558.6751    41.150056    41.150056    82.300111 
    6400    840.80875   -25344.815   -26214.171   -321.42731   -390.10061   -184.44783   -389.73349    41.150007    41.150007    82.300013 
    6500    845.83542   -25343.565   -26218.118   -266.67507    363.87354   -940.69719   -223.20156    41.149471    41.149471    82.298942 
    6600    839.95659   -25342.409   -26210.884    4.8062056   -221.71579    87.333983    148.80042    41.148019    41.148019    82.296037 
    6700    848.58213   -25341.306     -26218.7   -128.44447    -219.0198       132.94   -299.25361    41.146687    41.146687    82.293373 
    6800    836.79716   -25340.256   -26205.464    195.97201    593.41024   -44.704418    39.210212    41.145875    41.145875     82.29175 
    6900     851.0684   -25339.192   -26219.156   -201.88445   -560.28357     38.19226   -83.562051    41.146359    41.146359    82.292717 
    7000    837.19738   -25338.175   -26203.797    210.60599    263.79219    672.69798   -304.67219    41.147231    41.147231    82.294461 
    7100    847.46189   -25337.174   -26213.409   -66.771684   -6.4511377   -7.3679632   -186.49595    41.148766    41.148766    82.297532 
    7200     843.4269   -25336.177    -26208.24    32.285326   -181.26337    591.62504    -313.5057     41.15066     41.15066     82.30132 
    7300    839.43488   -25335.182   -26203.117   -40.295514   -428.90719    385.13104   -77.110389      41.1526      41.1526    82.305199 
    7400    843.18329    -25334.21   -26206.021   -186.27739   -133.64322    277.87799   -703.06693    41.153728    41.153728    82.307456 
    7500    834.73771   -25333.269   -26196.348    89.727393    49.331969    296.79133   -76.941122    41.153702    41.153702    82.307404 
    7600    838.28397   -25332.358   -26199.103     1.007046    236.73685   -53.664822   -180.05089     41.15284     41.15284     82.30568 
    7700     839.0927   -25331.476   -26199.057    84.485976   -94.440611    322.29676     25.60178    41.151516    41.151516    82.303032 
    7800    849.28421   -25330.564   -26208.683   -96.068066   -355.62988    78.355138   -10.929455    41.150611    41.150611    82.301221 
    7900    845.40112   -25329.725   -26203.829    189.28873    284.72343    390.18799   -107.04523    41.149919    41.149919    82.299839 
    8000    848.27975   -25328.937   -26206.017    34.156625    26.011267    163.71359   -87.254985    41.150291    41.150291    82.300583 
    8100    848.91172   -25328.193   -26205.927    65.056044    310.30112    45.830488   -160.96347    41.151436    41.151436    82.302871 
    8200    838.09883   -25327.519   -26194.073    188.72942   -37.999104    372.41047     231.7769    41.152954    41.152954    82.305907 
    8300    846.60752   -25326.813   -26202.165   -79.109447   -477.99867    119.00011    121.67021    41.154905    41.154905    82.309811 
    8400    844.75076   -25326.149   -26199.581   -2.4549997   -29.660893    315.29669   -293.00079    41.156345    41.156345    82.312691 
    8500    844.11657   -25325.528   -26198.304    76.888497    -99.00496    488.53815    -158.8677    41.157179    41.157179    82.314357 
    8600    832.39024   -25324.979   -26185.631    275.47545    20.961957    160.97358    644.49081    41.157324    41.157324    82.314647 
    8700    845.12596   -25324.377   -26198.197   -88.833457   -136.89152   -77.934961   -51.673889    41.157613    41.157613    82.315226 
    8800    853.27532   -25323.797   -26206.043   -222.81445   -37.862101   -254.65297   -375.92827    41.157246    41.157246    82.314492 
    8900    854.26277   -25323.261   -26206.528   -203.98065   -166.73731   -74.643329   -370.56132    41.156252    41.156252    82.312504 
    9000    847.71868   -25322.732   -26199.233    1.3128711    -210.1634    218.26004   -4.1580282    41.155257    41.155257    82.310514 
    9100    847.75281   -25322.237   -26198.773    111.28061   -224.39626    283.89693    274.34115    41.154317    41.154317    82.308633 
    9200    849.42397   -25321.746   -26200.009   -26.310619    180.45428   -157.61392   -101.77221    41.154072    41.154072    82.308143 
    9300    836.54699   -25321.281   -26186.231     409.4938    944.64548   -204.29706    488.13298    41.154309    41.154309    82.308619 
    9400    850.40207   -25320.856   -26200.131   -37.254188   -18.731362    230.95698   -323.98818    41.155318    41.155318    82.310635 
    9500    849.59928   -25320.457   -26198.901   -5.9876799    465.97344   -134.86782   -349.06866    41.156673    41.156673    82.313346 
    9600    845.89779   -25320.047   -26194.664    30.333404     629.4011   -736.02055    197.61966    41.158385    41.158385    82.316769 
    9700     846.7102   -25319.703    -26195.16   -26.531124   -51.963092    385.04767   -412.67795    41.159588    41.159588    82.319176 
    9800     844.8716   -25319.386   -26192.942   -95.544927   -116.19182    21.723243    -192.1662    41.160126    41.160126    82.320253 
    9900    836.95249   -25319.047   -26184.415    250.58831    552.06037    228.74496   -29.040412    41.160003    41.160003    82.320007 
   10000    849.46902   -25318.771   -26197.081   -110.49701   -48.462023     259.4159   -542.44492    41.158947    41.158947    82.317894 
   10100    852.13716   -25318.531     -26199.6    20.016914    262.52106   -130.70751   -71.762807    41.157399    41.157399    82.314798 
   10200    847.16104   -25318.299   -26194.223    180.39645   -100.01098    386.35105    254.84927    41.156374    41.156374    82.312748 
   10300    849.53215   -25318.136   -26196.512    145.12021    705.92958     90.61917   -361.18814    41.155755    41.155755    82.311509 
   10400    856.40542   -25317.981   -26203.463      27.8181   -367.57563    431.14742    19.882511    41.156193    41.156193    82.312386 
   10500    855.62551   -25317.821   -26202.497   -303.88345    133.80414   -341.64411   -703.81039    41.157588    41.157588    82.315177 
   10600    845.08705   -25317.691    -26191.47    106.03796    87.023133    215.53437    15.556375    41.158633    41.158633    82.317267 
   10700    852.28829   -25317.554   -26198.779   -207.48877   -205.99057   -666.50623     250.0305    41.159589    41.159589    82.319179 
   10800    842.00083   -25317.411   -26187.999     75.26517    307.83412    220.73881   -302.77743    41.160066    41.160066    82.320132 
   10900    853.05736   -25317.258   -26199.278   -132.99169    165.93104   -386.26463   -178.64146    41.160145    41.160145     82.32029 
   11000     846.0648   -25317.196   -26191.986    100.47781     444.0464   -624.53207    481.91909    41.159085    41.159085    82.318171 
   11100    844.35584   -25317.119   -26190.142    204.59756    36.506421    629.18382   -51.897545    41.158317    41.158317    82.316634 
   11200    850.28215   -25317.035   -26196.186    33.000958    439.94936    -269.3817   -71.564776    41.158153    41.158153    82.316307 
   11300    852.55194   -25316.972    -26198.47   -11.632655   -188.67936    31.358283    122.42311    41.158147    41.158147    82.316293 
   11400    856.32723    -25316.92   -26202.321   -239.73607    13.910619   -702.44963   -30.669211    41.158196    41.158196    82.316392 
   11500    856.12781    -25316.85   -26202.045   -192.42962   -810.29474   -21.816087    254.82197    41.158528    41.158528    82.317057 
   11600    852.18555   -25316.798   -26197.917   -55.927287   -46.227175    110.79794   -232.35263    41.158726    41.158726    82.317451 
   11700    853.22555   -25316.795   -26198.989   -57.803641   -42.597467   -248.80862    117.99516    41.158668    41.158668    82.317336 
   11800    848.34738    -25316.75   -26193.901    32.316294    235.94809    336.40237   -475.40158    41.159001    41.159001    82.318003 
   11900     852.7257   -25316.744   -26198.422   -136.31963    343.14048   -401.01204   -351.08732    41.158971    41.158971    82.317943 
   12000    850.62108   -25316.747   -26196.249   -1.1877498    45.423185     546.8224   -595.80883    41.158689    41.158689    82.317377 
   12100    859.82023   -25316.738   -26205.751   -314.68196   -269.29588   -244.13579   -430.61421    41.158571    41.158571    82.317141 
   12200    851.32288   -25316.766   -26196.993    20.758606    222.58425    69.833197   -230.14163    41.158192    41.158192    82.316383 
   12300    850.16201   -25316.778   -26195.805    14.510537    371.43491   -500.68336    172.78005    41.158108    41.158108    82.316217 
   12400    852.02761   -25316.803   -26197.759   -169.33395   -419.97342    339.06803   -427.09647    41.157928    41.157928    82.315855 
   12500    845.59306   -25316.834   -26191.136    130.70629   -378.24771    377.83439    392.53218    41.157357    41.157357    82.314713 
   12600    854.77032     -25316.9   -26200.692   -5.5644757   -189.99534    138.55474    34.747175    41.156775    41.156775     82.31355 
   12700    837.77855   -25316.931   -26183.153    382.42519    209.30698    1023.7743   -85.805666    41.156923    41.156923    82.313846 
   12800    863.20359   -25316.906   -26209.417   -370.36883   -725.46733    269.11886   -654.75801     41.15778     41.15778     82.31556 
   12900    851.30108    -25316.93   -26197.135    60.655162    300.81365    185.91795   -304.76611    41.158138    41.158138    82.316276 
   13000    844.89823   -25316.943   -26190.527    103.48706   -194.91066    447.09866    58.273196    41.158884    41.158884    82.317768 
   13100    851.86492   -25316.914   -26197.702   -141.24152    361.54582   -547.16903   -238.10134    41.159918    41.159918    82.319836 
   13200     853.2694   -25316.905   -26199.144   -150.73879   -273.32775   -75.976846   -102.91178    41.160389    41.160389    82.320779 
   13300    855.05031    -25316.91   -26200.991   -128.76816   -490.29136    217.75056    -113.7637     41.16011     41.16011     82.32022 
   13400    843.93172   -25316.923   -26189.507     139.6293    679.04276   -334.97549    74.820631    41.159354    41.159354    82.318709 
   13500    855.27981   -25316.937   -26201.255   -94.898473    29.423814   -337.52424    23.405004    41.158726    41.158726    82.317451 
   13600    846.07585   -25316.959   -26191.761    156.82165   -119.56466    277.34262    312.68698    41.158096    41.158096    82.316192 
   13700    854.80446   -25316.984   -26200.811   -64.440539    164.00485   -409.95788    52.631415    41.157786    41.157786    82.315572 
   13800    850.08955   -25317.018   -26195.969    151.25942    498.75786    19.147438   -64.127021    41.157683    41.157683    82.315367 
   13900    846.73313   -25317.051   -26192.532    100.79835    430.95155   -16.086524   -112.46997    41.158137    41.158137    82.316275 
   14000    849.78413   -25317.083   -26195.719      -84.958   -45.178021   -350.82415    141.12817    41.158805    41.158805    82.317609 
   14100    839.14864   -25317.108   -26184.747    218.11066    562.43704    269.63617   -177.74124    41.159197    41.159197    82.318394 
   14200      851.427   -25317.141   -26197.476   -103.51026    21.075095   -213.53158   -118.07429    41.159445    41.159445    82.318891 
   14300    844.79759   -25317.206   -26190.686    170.01894   -157.66418     475.5764    192.14462    41.158977    41.158977    82.317953 
   14400    862.04185    -25317.24    -26208.55   -280.17512   -450.11706      6.15869   -396.56699    41.158907    41.158907    82.317813 
   14500     844.6924   -25317.277   -26190.648    177.37675    435.92049   -226.73869    322.94845    41.158654    41.158654    82.317307 
   14600    846.62086   -25317.262   -26192.627    161.08195    156.38908   -268.94886    595.80563    41.159141    41.159141    82.318283 
   14700     840.4781   -25317.249   -26186.263    243.04805    844.52527   -125.50919    10.128056    41.159735    41.159735     82.31947 
   14800    851.46084   -25317.245   -26197.615   -63.029988    67.317596   -54.349474   -202.05809    41.160201    41.160201    82.320401 
   14900    847.95011   -25317.283   -26194.023     1.224658    551.66565   -348.07672   -199.91496    41.159857    41.159857    82.319714 
   15000    848.49149    -25317.28    -26194.58   -9.1070308   -50.285188    71.153292   -48.189197    41.159397    41.159397    82.318794 
   15100    850.06303   -25317.281   -26196.206   -31.958008   -29.542626   -3.7206966   -62.610701    41.158701    41.158701    82.317403 
   15200    845.69183   -25317.302   -26191.707    115.64925    534.81213    89.963416   -277.82779    41.157792    41.157792    82.315583 
   15300    855.78062   -25317.266   -26202.102   -70.613209   -187.55962   -19.119038   -5.1609677    41.157496    41.157496    82.314992 
   15400    845.60009    -25317.28    -26191.59    205.78013    911.50436   -266.78711   -27.376856    41.157269    41.157269    82.314537 
   15500    849.95276   -25317.282   -26196.092   0.24722303    70.688524    99.276923   -169.22378    41.157564    41.157564    82.315128 
   15600    852.97858   -25317.288   -26199.227   -54.566285    242.92092   -7.8976635   -398.72211    41.158118    41.158118    82.316236 
   15700     848.3726   -25317.337   -26194.514    50.524314   -240.54886   -35.729106     427.8509    41.158281    41.158281    82.316563 
   15800    853.33192   -25317.353   -26199.657   -33.625959   -208.97859    190.67731   -82.576599    41.158614    41.158614    82.317229 
   15900     862.2366   -25317.312   -26208.824   -293.77331   -489.49063    59.224022   -451.05333    41.159446    41.159446    82.318891 
   16000    845.69646   -25317.329   -26191.738    99.854782    261.32504    -21.64969    59.888998    41.159669    41.159669    82.319337 
   16100    847.21701    -25317.39   -26193.372    30.304065   -159.40446    295.45361   -45.136953    41.159503    41.159503    82.319007 
   16200    843.51593   -25317.416   -26189.571    205.60777   -205.54456     584.4433    237.92458    41.159467    41.159467    82.318933 
   16300    855.34654   -25317.405   -26201.792   -132.03762    376.25131   -603.74006    -168.6241    41.159761    41.159761    82.319521 
   16400    854.93614    -25317.38   -26201.343   -222.66313   -346.52905   -258.12308   -63.337255    41.159739    41.159739    82.319478 
   16500    840.37135   -25317.367    -26186.27     225.6392     2.139806    365.81181    308.96599    41.159014    41.159014    82.318027 
   16600     841.0709   -25317.323    -26186.95    277.98499   -52.212075    191.78035    694.38671    41.158361    41.158361    82.316722 
   16700    850.89821   -25317.265   -26197.053   -26.217597   -693.03409    332.38748    281.99382    41.158184    41.158184    82.316368 
   16800    842.64407   -25317.207    -26188.46     229.1053   -71.522657    256.81837     502.0202    41.158192    41.158192    82.316384 
   16900    851.99501   -25317.157   -26198.079   -27.536725    103.04069    -340.5513    154.90043     41.15842     41.15842     82.31684 
   17000    848.28184   -25317.136   -26194.218    24.498721    382.91891    8.3880097   -317.81076    41.158408    41.158408    82.316815 
   17100    846.92158   -25317.115   -26192.791    104.52637    360.55569   -117.33113    70.354549    41.158471    41.158471    82.316942 
   17200     849.3161   -25317.049   -26195.201   -36.814855    4.0211342   -84.104429   -30.361269    41.159063    41.159063    82.318125 
   17300    854.44253   -25317.024   -26200.477   -106.46859   -176.82815   -3.2275889   -139.35002    41.159406    41.159406    82.318813 
   17400    850.45856    -25317.03   -26196.363   -43.097224   -211.61235    55.857053    26.463628    41.159411    41.159411    82.318823 
   17500    853.00496    -25317.02   -26198.986   -184.34096   -165.30564    254.08406   -641.80131    41.159306    41.159306    82.318613 
   17600    857.90507   -25316.962   -26203.995    -314.6236   -231.15072   -130.59459   -582.12549    41.159165    41.159165     82.31833 
   17700    845.40474   -25316.888   -26190.996    95.383378    272.19174    272.92917   -258.97078    41.158718    41.158718    82.317436 
   17800    852.59326   -25316.839   -26198.379   -83.083198   -356.03515    336.79504   -230.00948    41.158022    41.158022    82.316043 
   17900    852.53129   -25316.794   -26198.271    19.193561   -13.522371    90.768329   -19.665274    41.157274    41.157274    82.314548 
   18000    845.44726   -25316.812   -26190.964    209.97422    160.94663    219.37103      249.605    41.156594    41.156594    82.313188 
   18100    843.92477   -25316.805   -26189.383    355.24869    439.90996    665.29039   -39.454264    41.156783    41.156783    82.313566 
   18200    861.33815     -25316.8   -26207.383   -167.62393   -268.04094     277.3209   -512.15175    41.157811    41.157811    82.315622 
   18300    852.86702   -25316.854   -26198.677    -111.6079    49.153364    359.84484   -743.82191    41.158894    41.158894    82.317789 
   18400    857.24626   -25316.876   -26203.228   -203.67821    29.363064   -440.69997   -199.69773     41.16038     41.16038     82.32076 
   18500    848.83856    -25316.89   -26194.548   -190.23733   -275.86091   -588.29508      293.444    41.161555    41.161555     82.32311 
   18600    851.17428   -25316.912   -26196.986   -194.55539   -34.545999   -330.51698   -218.60318    41.161449    41.161449    82.322898 
   18700    844.54902   -25316.965   -26190.188    119.29525    66.568792    -173.3115    464.62845    41.159968    41.159968    82.319937 
   18800    846.01474   -25317.033   -26191.772    162.09757   -173.19508    434.38632    225.10148    41.158079    41.158079    82.316157 
   18900       855.38   -25317.052   -26201.474    -78.78078   -497.67178   -30.458554    291.78799    41.157015    41.157015    82.314029 
   19000    842.59202   -25317.096   -26188.295    388.37516    451.43191    421.42883    292.26474     41.15632     41.15632     82.31264 
   19100    856.87064    -25317.12   -26203.083    25.511799   -166.67096    68.135898    175.07046    41.156633    41.156633    82.313267 
   19200    843.78824   -25317.141   -26189.578     229.2087    96.920505     711.0963   -120.39069    41.157609    41.157609    82.315218 
   19300    855.55231   -25317.154   -26201.754   -168.31339   -415.60621  -0.37562264    -88.95835    41.158831    41.158831    82.317662 
   19400     850.8015   -25317.209   -26196.897   -81.979118   -458.10775    95.644949    116.52545    41.159312    41.159312    82.318624 
   19500    845.41283   -25317.241   -26191.357   -61.330943     -463.374   -170.51103     449.8922    41.159376    41.159376    82.318753 
   19600    850.95469   -25317.247   -26197.093   -110.90271    -20.46909   -239.15237   -73.086665    41.158838    41.158838    82.317675 
   19700    839.69472   -25317.241   -26185.445    186.48595    -44.82108    238.24166    366.03728    41.157649    41.157649    82.315299 
   19800    849.03247   -25317.174   -26195.033   -33.717115   -364.71835    321.28908   -57.722073    41.156833    41.156833    82.313667 
   19900    843.60376   -25317.143   -26189.389    320.60198   -121.20321    477.52593    605.48323     41.15574     41.15574    82.311481 
   20000    843.64855   -25317.116   -26189.408    225.02832    271.87612    332.81271    70.396137    41.155449    41.155449    82.310897 
   20100    860.27175   -25316.998   -26206.478   -252.71399    -405.7674   -163.90171   -188.47285    41.156566    41.156566    82.313132 
   20200    854.43271    -25316.96   -26200.402    110.03037   -27.890621    105.67658    252.30517    41.157588    41.157588    82.315177 
   20300    859.00172    -25316.94   -26205.106   -223.10228   -70.104011   -13.822172   -585.38065    41.159202    41.159202    82.318404 
   20400    848.28036    -25316.95   -26194.031   -80.069604   -362.86676   -25.036888    147.69484    41.160355    41.160355     82.32071 
   20500    844.80851   -25316.946   -26190.438   -10.720858    86.001211    -322.9855    204.82172    41.160848    41.160848    82.321697 
   20600    854.02882   -25316.915   -26199.939    -289.3666   -807.87259   -144.13181    83.904599    41.160749    41.160749    82.321499 
   20700    851.83204   -25316.841   -26197.594   -165.07511   -177.87874   -184.04928    -133.2973    41.160267    41.160267    82.320534 
   20800    846.85386   -25316.787   -26192.394    59.711003   -13.669019    223.11698   -30.314948    41.159169    41.159169    82.318337 
   20900    841.99157   -25316.736   -26187.315    203.17812    158.63792    40.962115    409.93432    41.157874    41.157874    82.315748 
   21000    860.11141   -25316.632   -26205.946   -187.26276   -398.70351   -117.17906   -45.905691    41.157276    41.157276    82.314552 
   21100    850.81894   -25316.579   -26196.285    64.211845   -228.17503   -170.50958    591.32015    41.156753    41.156753    82.313506 
   21200     855.9613   -25316.537    -26201.56   -8.1805695    28.847586   -405.12873    351.73944    41.156941    41.156941    82.313882 
   21300    856.46021   -25316.493   -26202.032    -162.2499   -56.153533   -275.25797   -155.33819    41.158013    41.158013    82.316026 
   21400    857.30438   -25316.468   -26202.879   -137.47632    290.76759    -3.117309   -700.07923    41.159143    41.159143    82.318286 
   21500    856.10913   -25316.495   -26201.671    -103.2944   -87.342274     550.5171   -773.05803     41.16005     41.16005    82.320099 
   21600    850.45284   -25316.518   -26195.845   -83.102622   -413.98542   -287.83765    452.51521     41.16071     41.16071    82.321419 
   21700     844.4731   -25316.526    -26189.67    104.42541     112.4596   -272.84038      473.657    41.160827    41.160827    82.321654 
   21800    848.96689   -25316.518   -26194.309   -2.4951341    416.89851   -345.30548   -79.078426     41.16048     41.16048    82.320961 
   21900    860.03565   -25316.552   -26205.787   -202.80589   -250.55551   -93.867247   -263.99492    41.159466    41.159466    82.318931 
   22000    838.95102   -25316.653   -26184.088    353.37416   -172.25007    493.17602    739.19654    41.157988    41.157988    82.315977 
   22100    847.70198   -25316.703   -26193.186     109.2039   -70.006721    91.780097    305.83832    41.157282    41.157282    82.314564 
   22200    848.36875   -25316.791   -26193.964    111.29863    234.56888   -4.2795611    103.60657    41.156622    41.156622    82.313244 
   22300    852.12593   -25316.859   -26197.917    59.934046   -368.05436    32.088098     515.7684    41.156485    41.156485     82.31297 
   22400     836.8009   -25316.936   -26182.148    448.16277    590.27195    89.022721    665.19364    41.156705    41.156705     82.31341 
   22500    854.69745   -25317.007   -26200.723    -71.26685    266.45222   -497.50071    17.247937    41.157568    41.157568    82.315136 
   22600    845.08532   -25317.057   -26190.834    35.442892   -275.09046    288.13228    93.286855    41.158623    41.158623    82.317245 
   22700    848.99558   -25317.015   -26194.835   -36.160614   -103.62804    -198.2798      193.426    41.160084    41.160084    82.320168 
   22800    860.04543   -25317.009   -26206.254    -373.8788   -658.82922   -417.32875   -45.478426     41.16077     41.16077     82.32154 
   22900    853.25748   -25317.015   -26199.242   -187.16211   -267.76713   -438.39769    144.67849    41.160311    41.160311    82.320623 
   23000    860.91635   -25317.008   -26207.154   -295.43339   -74.652645   -457.98903   -353.65848     41.15946     41.15946    82.318919 
   23100    856.51987   -25317.014   -26202.615   -179.92766   -139.36236   -431.25733    30.836714    41.158478    41.158478    82.316956 
   23200    850.27992   -25317.015   -26196.163    117.46909   -64.387962    331.29821    85.497023     41.15779     41.15779    82.315579 
   23300    843.72432   -25317.035   -26189.405    226.38561    349.49233    246.70896     82.95554    41.157746    41.157746    82.315492 
   23400    850.16957   -25317.063   -26196.098   0.65924973    324.55963    53.976532   -376.55842    41.158147    41.158147    82.316293 
   23500    848.35138   -25317.106    -26194.26   -3.6770999    227.32474    233.05865   -471.41469    41.158917    41.158917    82.317834 
   23600    854.04671   -25317.129   -26200.172   -258.48369   -395.76391   -3.9558942   -375.73126    41.159669    41.159669    82.319338 
   23700     847.8199   -25317.147   -26193.752    54.866824    103.97834    143.45901   -82.836877    41.159663    41.159663    82.319326 
   23800    849.40166   -25317.157   -26195.398   -136.71751   -308.12725   -131.09276    29.067475    41.159412    41.159412    82.318824 
   23900    846.41762   -25317.157   -26192.312    70.870412    465.56652   -13.142132   -239.81315     41.15884     41.15884     82.31768 
   24000    849.26288   -25317.157   -26195.254    50.228409   -132.73031    264.39345    19.022087    41.158098    41.158098    82.316196 
   24100    849.06857   -25317.192   -26195.088    11.363035    62.382378    174.44498   -202.73825    41.157395    41.157395    82.314791 
   24200     840.6575   -25317.198   -26186.398    278.31094    666.59025    223.55337   -55.210787    41.157239    41.157239    82.314477 
   24300    858.93944   -25317.202   -26205.304   -205.40236    46.064347   -662.17001  -0.10142351    41.157603    41.157603    82.315205 
   24400    854.08944   -25317.203   -26200.291   -96.891611    -295.8913    95.258532   -90.042066    41.158148    41.158148    82.316296 
   24500    848.19111   -25317.179   -26194.168    26.372762    45.488928    542.32321   -508.69385    41.159033    41.159033    82.318065 
   24600    856.21415   -25317.123   -26202.407   -242.36446   -277.02038   -360.94583   -89.127162    41.160181    41.160181    82.320361 
   24700    845.32347   -25317.082   -26191.106    61.328148    92.239021    292.37785   -200.63243    41.160857    41.160857    82.321714 
   24800    848.37604   -25317.052   -26194.232   -134.77264   -262.57553    -151.1125     9.370102    41.160943    41.160943    82.321886 
   24900    861.24617    -25317.01   -26207.497   -390.31537   -441.76766    -506.1393   -223.03915    41.160318    41.160318    82.320636 
   25000    854.51712   -25316.974   -26200.503    -197.5049   -329.87429   -260.03103   -2.6093857    41.159147    41.159147    82.318295 
   25100    843.72259   -25316.918   -26189.287    267.95937    446.89916    339.97182    17.007117    41.157743    41.157743    82.315486 
   25200    845.13541   -25316.839   -26190.668    164.56151   -119.85474    382.76445    230.77482    41.156795    41.156795     82.31359 
   25300    849.99064   -25316.821    -26195.67    96.640365     238.5233   -92.667545    144.06535    41.155945    41.155945    82.311889 
   25400    840.94293   -25316.803   -26186.297    395.09836    541.76228   -79.352664    722.88545    41.155817    41.155817    82.311634 
   25500    852.25774   -25316.801   -26197.995    18.449243    458.97885   -190.10442   -213.52671    41.156681    41.156681    82.313362 
   25600    848.25147   -25316.838   -26193.889    102.43742    481.15227   -325.42095    151.58095    41.157803    41.157803    82.315606 
   25700    851.74948   -25316.849   -26197.517   -36.919939    374.64134    -647.7949    162.39375    41.159226    41.159226    82.318452 
   25800    850.01439   -25316.833   -26195.707   -105.15468   -66.001582    19.871602   -269.33406    41.160589    41.160589    82.321177 
   25900    847.85351   -25316.777   -26193.417   -95.674747    82.676694   -210.19267   -159.50827    41.161576    41.161576    82.323153 
   26000    851.34865   -25316.724   -26196.978   -162.28977   -127.30387   -114.36312   -245.20234    41.161839    41.161839    82.323678 
   26100    851.52603   -25316.732   -26197.169   -186.24786    234.37137   -499.26275   -293.85219    41.160734    41.160734    82.321468 
   26200    847.22318   -25316.719   -26192.707     106.8539    139.64061    83.833534    97.087557    41.159255    41.159255     82.31851 
   26300    842.91858   -25316.727   -26188.265    273.63531    131.37166    411.07473    278.45954    41.157819    41.157819    82.315637 
   26400    847.94374   -25316.722   -26193.455    121.85331    466.36609   -386.96067     286.1545     41.15717     41.15717    82.314341 
   26500    857.50626   -25316.705   -26203.326   -133.98097   -58.761702   -529.75348    186.57229    41.157214    41.157214    82.314429 
   26600    847.29838   -25316.724    -26192.79    145.50993    280.76819   -615.68072    771.44233    41.157429    41.157429    82.314858 
   26700    850.50851   -25316.749   -26196.134    4.5473585    -46.05643   -33.792202    93.490708    41.158096    41.158096    82.316191 
   26800       854.03   -25316.765   -26199.791   -75.119668   -440.66706    34.969643    180.33842    41.159177    41.159177    82.318354 
   26900    848.68248   -25316.792   -26194.289   -10.134513    303.65442   -667.71584    333.65788    41.160092    41.160092    82.320184 
   27000    848.99914   -25316.832   -26194.657   -6.4866432    422.99951    42.857881   -485.31732    41.160663    41.160663    82.321325 
   27100    855.92491   -25316.859   -26201.844   -263.98024   -587.51772   -553.69513    349.27212    41.160868    41.160868    82.321736 
   27200    851.57631   -25316.887   -26197.376   -86.758549   -43.834643   -202.76729   -13.673716     41.16028     41.16028     82.32056 
   27300    853.43579   -25316.926   -26199.338   -100.60924     100.7169   -268.36262   -134.18201    41.159263    41.159263    82.318527 
   27400    844.23057   -25316.945   -26189.839    134.14668   -172.91806    310.77588    264.58223    41.158322    41.158322    82.316643 
   27500    855.21147   -25316.974   -26201.221   0.39923068    401.94985   -235.08519   -165.66696    41.157326    41.157326    82.314652 
   27600    841.36804   -25317.026    -26186.96    360.07348    261.59547    429.17099    389.45398    41.156595    41.156595    82.313191 
   27700    858.80363   -25317.011   -26204.973   -130.04691   -290.59334   -146.99095    47.443566    41.157059    41.157059    82.314118 
   27800    846.24344       -25317   -26191.975    161.63721    -251.0466    211.30211    524.65613    41.157945    41.157945     82.31589 
   27900    846.55913   -25316.965   -26192.266    102.90438    209.30741    46.984736    52.420987     41.15924     41.15924    82.318479 
   28000    851.76213   -25316.981   -26197.662   -120.94639   -101.35318   -375.72753    114.24154    41.160122    41.160122    82.320244 
   28100    852.36031   -25316.986   -26198.285   -186.34064   -198.25613   -88.605256   -272.16054    41.160709    41.160709    82.321418 
   28200    848.64957   -25317.024   -26194.487   -86.437259     135.3954   -471.32203    76.614857    41.160282    41.160282    82.320565 
   28300    844.35137   -25317.033   -26190.052    84.930844     52.41078    212.40077   -10.019022    41.159386    41.159386    82.318772 
   28400     847.3595   -25317.019   -26193.148    77.366305   -107.90393   -39.794081    379.79693    41.158398    41.158398    82.316797 
   28500    839.81504    -25317.03   -26185.358    300.43257    602.87518    168.88906    129.53347    41.157305    41.157305     82.31461 
   28600     850.4697   -25316.978   -26196.323     71.43388   -91.980864    343.86505   -37.582547    41.156865    41.156865    82.313729 
   28700    850.91018   -25316.954   -26196.754    92.767911    406.44956    -221.2716    93.125773    41.156499    41.156499    82.312998 
   28800    844.78847   -25316.946   -26190.416    168.66009    161.18055   -36.870294    381.67001    41.156571    41.156571    82.313142 
   28900    846.63483   -25316.923   -26192.302     116.5522    174.29257    91.064378    84.299637    41.157141    41.157141    82.314283 
   29000    847.46715   -25316.915   -26193.155     110.5798   -5.7132888    203.23725    134.21544     41.15803     41.15803    82.316059 
   29100     844.8026   -25316.903   -26190.389    143.28734   -74.857904    794.79329   -290.07338    41.159252    41.159252    82.318505 
   29200    851.88273   -25316.919   -26197.725   -104.03997   -603.78143    11.212545    280.44897     41.16015     41.16015    82.320299 
   29300    849.77666   -25316.936   -26195.564   -132.83743   -181.38249   -309.42517    92.295362    41.160461    41.160461    82.320921 
   29400    847.19268   -25316.908   -26192.864   -40.400712    123.76566   -302.83439    57.866594    41.160333    41.160333    82.320667 
   29500    856.17006   -25316.908   -26202.146   -163.30674   -170.67454   -115.69722   -203.54846      41.1594      41.1594    82.318801 
   29600    858.42035   -25316.924   -26204.489   -178.79906   -172.47102    128.48473   -492.41087    41.158116    41.158116    82.316232 
   29700    848.62826   -25316.928   -26194.368    85.770131   -68.835839   -20.756723    346.90295    41.157524    41.157524    82.315048 
   29800    866.65463     -25316.9    -26212.98   -337.36732   -673.91473   -212.99979   -125.18745    41.157752    41.157752    82.315504 
   29900    855.04826   -25316.948   -26201.027   -96.677186   -183.25398   -169.27127     62.49369     41.15746     41.15746    82.314921 
   30000    846.62525   -25316.995   -26192.365    126.88807   -335.49527    122.27567    593.88383    41.157443    41.157443    82.314887 
   30100    846.37596   -25317.008    -26192.12    127.07724     266.8692   -134.01913    248.38166     41.15808     41.15808    82.316159 
   30200    851.47146   -25317.046   -26197.427     36.31284   -67.120168    175.02674    1.0319539    41.158814    41.158814    82.317627 
   30300      851.245   -25317.093   -26197.239   -94.522731   -474.99573    130.82038     60.60716    41.159799    41.159799    82.319598 
   30400    847.72628    -25317.12   -26193.628    84.618562   -61.846271    416.44198   -100.74002    41.160666    41.160666    82.321331 
   30500    845.27204   -25317.174   -26191.145    24.149635    262.94707    316.70014   -507.19831    41.160977    41.160977    82.321954 
   30600    847.74706   -25317.202   -26193.731   -80.632478   -460.62113    43.644828    175.07887    41.160537    41.160537    82.321074 
   30700    851.38825   -25317.205     -26197.5   -44.669882   -596.25739    244.11374      218.134    41.159556    41.159556    82.319112 
   30800    853.60917   -25317.208   -26199.799   -61.087803    54.042681    -168.2802   -69.025887    41.158482    41.158482    82.316964 
   30900    848.61222   -25317.241   -26194.665    66.716286   -425.67726    223.56803    402.25809    41.157242    41.157242    82.314484 
   31000    849.77815   -25317.257   -26195.886     96.06332   -319.80408    108.82236    499.17168    41.156321    41.156321    82.312642 
   31100    846.61893   -25317.269   -26192.632    171.93385   -103.85228    407.82327    211.83054    41.155693    41.155693    82.311386 
   31200    859.93441   -25317.266   -26206.397   -109.24855   -388.19439     342.4609   -282.01216    41.155702    41.155702    82.311405 
   31300    842.21018   -25317.288   -26188.093    338.50999    97.230236    477.30584    440.99389    41.156361    41.156361    82.312723 
   31400    850.97318   -25317.343   -26197.208    1.1119923   -258.47564     257.7845    4.0271145    41.157624    41.157624    82.315248 
   31500    853.30104   -25317.378    -26199.65   -34.061981   -255.13927   -38.861982     191.8153    41.159259    41.159259    82.318518 
   31600    856.05929   -25317.412   -26202.537   -267.25865   -664.95316    90.716144   -227.53892    41.160756    41.160756    82.321512 
   31700    847.30943   -25317.442   -26193.519   -88.624627   -68.486245    -215.4057    18.018064    41.161423    41.161423    82.322846 
   31800    850.05761   -25317.445   -26196.364   -128.94706   -877.35858    768.24575   -277.72835    41.161291    41.161291    82.322582 
   31900    847.78703   -25317.443   -26194.014    -67.62316    -141.0104   -160.13967    98.280592    41.160292    41.160292    82.320583 
   32000    851.08936   -25317.458   -26197.443   -38.220423    203.98915   -261.38828   -57.262145    41.158725    41.158725     82.31745 
   32100    856.65565   -25317.488   -26203.229   -87.623348   -365.37684    39.061571    63.445229    41.157035    41.157035    82.314071 
   32200    863.37299   -25317.509   -26210.195   -250.40577   -173.28859   -12.937666   -564.99105    41.156066    41.156066    82.312132 
   32300    845.97219   -25317.582   -26192.276     312.3822    946.99958   -25.459536    15.606571    41.155643    41.155643    82.311285 
   32400    859.40622   -25317.657   -26206.242   -169.38337    -229.9755   -346.84663    68.672033    41.156229    41.156229    82.312458 
   32500     845.7683   -25317.764   -26192.248    146.30898    216.00903    133.84262    89.075289    41.157048    41.157048    82.314096 
   32600    847.99259   -25317.852   -26194.636    60.188299    -389.4567    565.74915    4.2724434    41.158014    41.158014    82.316029 
   32700    849.72658   -25317.879   -26196.456   -42.685057   -30.422051    280.33996   -377.97308     41.15891     41.15891     82.31782 
   32800    852.47102   -25317.912   -26199.326   -122.87124   -347.77238    -182.4755    161.63416    41.159506    41.159506    82.319012 
   32900     847.5004   -25317.905    -26194.18   -87.634571   -692.96025    322.81619    107.24035    41.159841    41.159841    82.319682 
   33000    850.85973   -25317.903   -26197.651 -0.025631298    238.73411    582.45366   -821.26466    41.159485    41.159485    82.318971 
   33100    851.81552    -25317.88   -26198.616   -82.372989   -262.28709    122.19578   -107.02766    41.158946    41.158946    82.317891 
   33200    853.33155   -25317.822   -26200.126   -47.062392   -159.69039    451.63602    -433.1328    41.158368    41.158368    82.316736 
   33300    849.79678   -25317.811    -26196.46   -36.529393   -238.23352   -181.76074    310.40608    41.157417    41.157417    82.314833 
   33400    842.56493   -25317.773   -26188.945    273.77047    626.67361    33.859335    160.77848    41.156727    41.156727    82.313454 
   33500    859.67656   -25317.756    -26206.62   -159.16808   -348.23582    226.20224   -355.47067    41.156442    41.156442    82.312884 
   33600    846.37967   -25317.769   -26192.885    174.02385   -220.73331    383.32242    359.48245    41.156228    41.156228    82.312455 
   33700    848.75934    -25317.73   -26195.306    112.36798   -84.486124     126.1647    295.42537    41.156913    41.156913    82.313825 
   33800    852.17765   -25317.716   -26198.827   -85.257074    -21.60822   -244.24425    10.081251     41.15782     41.15782    82.315639 
   33900    840.30855   -25317.668   -26186.506    224.37331    661.63791    445.44252   -433.96048     41.15906     41.15906     82.31812 
   34000    842.10753   -25317.616   -26188.314    54.524776   -37.829006    196.93261    4.4707288    41.160404    41.160404    82.320807 
   34100    853.31881   -25317.569   -26199.859   -310.03224   -266.96036    170.93823   -834.07459      41.1612      41.1612      82.3224 
   34200    850.74872    -25317.49   -26197.123   -204.81045    17.580306   -83.529069   -548.48259    41.161185    41.161185     82.32237 
   34300    847.71255   -25317.437   -26193.931   -25.664612    584.94731   -216.47938   -445.46177    41.160037    41.160037    82.320074 
   34400    857.68474    -25317.34   -26204.145   -109.97123    281.26074   -9.1773264   -601.99708    41.158708    41.158708    82.317417 
   34500    851.99521   -25317.279   -26198.201   -6.9244401    150.87003   -222.30911    50.665753    41.157442    41.157442    82.314884 
   34600    855.03359   -25317.204   -26201.267    14.539884     431.6079   -302.37518   -85.613073    41.156725    41.156725     82.31345 
   34700    845.67751    -25317.13    -26191.52    164.68515    502.95831   -39.992547     31.08969    41.156668    41.156668    82.313336 
   34800    853.38052    -25317.02   -26199.375   -24.939774    232.09726   -245.20505   -61.711529    41.157554    41.157554    82.315108 
   34900    853.41868   -25316.983   -26199.377   -57.013738    -125.7606    157.05718   -202.33779     41.15821     41.15821    82.316419 
   35000    849.31394   -25316.954   -26195.103    32.610365     154.1958    168.15436   -224.51907      41.1588      41.1588      82.3176 
   35100    849.31832   -25316.916   -26195.071    56.372045    215.93448   -129.31759    82.499246    41.159567    41.159567    82.319134 
   35200    849.68909   -25316.901   -26195.439   -116.68072    36.284494   -87.568716   -298.75794    41.159984    41.159984    82.319968 
   35300    851.82473    -25316.82   -26197.566   -69.108182   -82.600016   -251.59914    126.87461    41.160273    41.160273    82.320546 
   35400    846.17014   -25316.759   -26191.658    91.590081    100.05018    232.45208   -57.732014    41.159823    41.159823    82.319646 
   35500    853.10257   -25316.719   -26198.786   -62.318924   -13.706678   -157.73262   -15.517475    41.158807    41.158807    82.317614 
   35600    857.83519   -25316.697   -26203.657   -70.461522   -54.115449   -78.782051   -78.487067    41.157778    41.157778    82.315555 
   35700    846.43726   -25316.732   -26191.908    248.37276    122.17124    180.41114    442.53591    41.156851    41.156851    82.313702 
   35800    856.39608   -25316.788    -26202.26   -29.222299    388.73393   -44.248209   -432.15262    41.156677    41.156677    82.313353 
   35900    858.24596   -25316.869   -26204.254   -123.59907   -206.05536   -220.83994    56.098074    41.157129    41.157129    82.314259 
   36000    851.37745    -25316.95   -26197.233   -12.230644   -309.36427    37.127833     235.5445    41.158014    41.158014    82.316027 
   36100    848.78682    -25317.07   -26194.675    21.229192   -13.675619    236.12734   -158.76414     41.15891     41.15891     82.31782 
   36200    851.26041   -25317.142   -26197.305   -17.521943    101.08189     251.0398   -404.68752    41.160184    41.160184    82.320368 
   36300    851.48524    -25317.23   -26197.625    -134.9361    274.65818   -6.6156908   -672.85078    41.161341    41.161341    82.322683 
   36400    847.84474   -25317.321   -26193.951    16.478644   -36.273803    146.87212   -61.162386      41.1618      41.1618      82.3236 
   36500    845.88541   -25317.415    -26192.02    -15.02083    83.618948   -169.62105    40.939616    41.161308    41.161308    82.322615 
   36600    849.37877   -25317.531   -26195.747   -101.30469    210.95402   -493.28892   -21.579166    41.159733    41.159733    82.319467 
   36700    854.32827   -25317.625   -26200.959   -73.378316    214.24242   -144.65561   -289.72176    41.157722    41.157722    82.315444 
   36800    853.61768   -25317.711    -26200.31   -66.770572   -5.3939819     205.7119   -400.62963    41.155861    41.155861    82.311722 
   36900    852.47236   -25317.787   -26199.203    144.66907    245.67464    49.885784    138.44678    41.154754    41.154754    82.309508 
   37000    843.02113   -25317.902   -26189.545    311.28602    315.56236    394.73359    223.56211    41.154679    41.154679    82.309359 
   37100    848.38426   -25318.006   -26195.194    155.20087    83.921194    17.357887    364.32353    41.155748    41.155748    82.311496 
   37200    852.50626   -25318.057   -26199.507   -100.54562   -1.5288619   -193.28464   -106.82335    41.158098    41.158098    82.316196 
   37300     841.4037   -25318.102   -26188.073    245.39155    491.10679      52.7187    192.34916    41.160626    41.160626    82.321253 
   37400    855.97169   -25318.124   -26203.157   -364.86979   -386.48331   -323.90373   -384.22233    41.162823    41.162823    82.325646 
   37500    851.62256   -25318.135   -26198.672   -322.85726   -673.04507   -446.01445    150.48774    41.163518    41.163518    82.327037 
   37600    847.97622   -25318.127   -26194.893   -122.66589   -75.622333   -266.69493   -25.680421    41.162512    41.162512    82.325025 
   37700    848.96617   -25318.126   -26195.916    19.924551   -304.65155    260.88548    103.53972    41.160006    41.160006    82.320011 
   37800    847.67704   -25318.114   -26194.571    153.79532   -195.73698    195.40047    461.72247    41.157211    41.157211    82.314422 
   37900    845.71116    -25318.11   -26192.534    257.05756    379.20184    84.930133     307.0407    41.154917    41.154917    82.309835 
   38000    853.12954   -25318.066   -26200.161    130.51322   -110.59657   -159.10842    661.24466    41.154056    41.154056    82.308111 
   38100    861.89191    -25318.08   -26209.235   -133.34303   -303.27161    178.99865   -275.75612    41.154066    41.154066    82.308132 
   38200    846.41562    -25318.13   -26193.283    187.86487     384.1395    473.62219   -294.16709    41.155106    41.155106    82.310211 
   38300    852.47119   -25318.138   -26199.552   -40.678488   -410.33919   -48.599698    336.90342    41.157293    41.157293    82.314585 
   38400    849.52204   -25318.137   -26196.502   -112.20739   -123.70833   -480.89412     267.9803    41.159577    41.159577    82.319154 
   38500    850.19163   -25318.117   -26197.174   -210.48837   -47.086569   -360.38352   -223.99503    41.161467    41.161467    82.322935 
   38600    841.69819   -25318.093   -26188.369   -97.085616    235.64161   -422.04778   -104.85068    41.162172    41.162172    82.324345 
   38700    846.14064   -25318.009   -26192.878   -182.52386   -31.622144   -523.87889    7.9294389    41.161876    41.161876    82.323752 
   38800    855.43591   -25317.956   -26202.435   -250.51457   -375.40996   -359.54438   -16.589353    41.160011    41.160011    82.320022 
   38900    854.43032   -25317.902   -26201.342   -169.02057    26.158598   -361.22328   -171.99703     41.15756     41.15756     82.31512 
   39000    856.07986   -25317.851   -26202.996   -68.096098    83.822123   -102.55899   -185.55143    41.155245    41.155245    82.310489 
   39100     849.5492   -25317.812   -26196.205    236.56357    323.28407    746.18044   -359.77381    41.153727    41.153727    82.307455 
   39200    849.65911   -25317.791   -26196.298    245.28022    81.290803    513.00858    141.54129    41.153586    41.153586    82.307171 
   39300    852.45279   -25317.757   -26199.152    117.13464    178.42351    29.088874    143.89153    41.155224    41.155224    82.310447 
   39400    854.01151   -25317.733    -26200.74    -41.02125       137.17   -508.91567    248.68192    41.157809    41.157809    82.315618 
   39500    852.32231   -25317.722   -26198.983   -106.96882   -138.54083   -42.831008   -139.53462    41.160274    41.160274    82.320548 
   39600    835.64849   -25317.732   -26181.752    183.93948    494.39916    386.56081   -329.14154    41.161912    41.161912    82.323823 
   39700     852.6438   -25317.692   -26199.285   -279.18971   -558.08917   -31.139116   -248.34085    41.162946    41.162946    82.325891 
   39800    839.48475    -25317.68   -26185.667    33.655302   -461.39277    701.19976   -138.84108    41.162569    41.162569    82.325137 
   39900    864.34344   -25317.672   -26211.361   -446.11743   -247.46164   -404.55731   -686.33333    41.161045    41.161045     82.32209 
   40000    847.92053   -25317.707   -26194.416    60.578473   -132.55769    744.62564   -430.33253    41.158498    41.158498    82.316996 
   40100    850.70645   -25317.732   -26197.321    19.832578    88.944204   -87.473312    58.026843    41.156244    41.156244    82.312489 
   40200    862.63708   -25317.755    -26209.68   -128.01917    267.57306   -164.85186   -486.77872    41.154605    41.154605    82.309211 
   40300    850.65603   -25317.789   -26197.327    192.60475   -41.534262    502.88877    116.45974    41.154056    41.154056    82.308112 
   40400    841.08163    -25317.77   -26187.408    396.40227    612.95214    605.77521    -29.52055    41.155196    41.155196    82.310391 
   40500    857.54527    -25317.72    -26204.38   -219.83892    -287.8855   -116.97174   -254.65951    41.157626    41.157626    82.315252 
   40600    845.94671   -25317.728   -26192.396    48.672587   -99.872584    231.49405    14.396296    41.159607    41.159607    82.319215 
   40700    846.31001   -25317.731   -26192.775    16.178665    66.709473    181.86913    -200.0426    41.161202    41.161202    82.322404 
   40800    854.89482   -25317.709   -26201.629   -367.45871   -810.57288   -61.243262   -230.55998    41.162329    41.162329    82.324658 
   40900     857.8189   -25317.628   -26204.572   -368.92559   -451.18087   -465.79709    -189.7988    41.162514    41.162514    82.325028 
   41000     846.7139   -25317.623   -26193.084   -100.59443   -328.91591   -180.74822    207.88084    41.161072    41.161072    82.322144 
   41100    848.79314   -25317.639    -26195.25    26.115912   -248.74304   -176.72439    503.81516    41.158684    41.158684    82.317368 
   41200    852.82521   -25317.668   -26199.449    32.132299    57.596081    281.99645   -243.19563    41.156147    41.156147    82.312295 
   41300    849.59432   -25317.697   -26196.137    148.98089   -116.97136    744.16639   -180.25237    41.154215    41.154215     82.30843 
   41400    850.22809   -25317.727   -26196.822    115.44137     52.80193    88.637725    204.88445    41.153232    41.153232    82.306463 
   41500    845.25189   -25317.757   -26191.707    275.26745   -261.97377    643.52355    444.25258    41.153482    41.153482    82.306963 
   41600    857.30471   -25317.735   -26204.147   -75.405265    56.903135   -60.430745   -222.68818    41.155453    41.155453    82.310906 
   41700    853.01149   -25317.704   -26199.677   -87.115683    203.03463   -72.961287    -391.4204    41.157953    41.157953    82.315905 
   41800     844.2128   -25317.684   -26190.559   -23.539521    14.917445   -396.57571     311.0397    41.160109    41.160109    82.320219 
   41900    847.10504   -25317.648   -26193.514     -75.1372   -121.72647    -280.6461    176.96097    41.161667    41.161667    82.323333 
   42000    843.57911   -25317.576   -26189.796    4.9403004    45.110383    18.922727   -49.212208    41.162407    41.162407    82.324814 
   42100    844.92842   -25317.488   -26191.103   -47.963053   -154.24598   -38.807968    49.164788    41.162153    41.162153    82.324306 
   42200    848.08376   -25317.394   -26194.272   -9.5706529   -370.87951    150.60225     191.5653    41.160766    41.160766    82.321532 
   42300    847.12182   -25317.338   -26193.221    81.701108    111.39873   -326.15427    459.85886    41.158642    41.158642    82.317283 
   42400    849.96909   -25317.303    -26196.13    138.98521   -137.46952   -88.417687    642.84283    41.156493    41.156493    82.312987 
   42500    838.32322   -25317.284    -26184.07    441.82612    412.61373    156.54495    756.31968    41.155082    41.155082    82.310164 
   42600    852.86609   -25317.237    -26199.06    94.102166     96.37555   -206.86796    392.79891    41.155184    41.155184    82.310367 
   42700    849.23425    -25317.23   -26195.297    143.66291    162.05587    68.693154     200.2397    41.155987    41.155987    82.311974 
   42800    853.95947   -25317.197    -26200.15   -115.66424   -211.26519   -249.47589    113.74835    41.157742    41.157742    82.315485 
   42900    857.05779   -25317.166   -26203.323   -348.99583   -191.31809   -408.51503   -447.15436    41.159837    41.159837    82.319673 
   43000    848.27303   -25317.146    -26194.22   -68.117185    406.00665   -343.76073   -266.59747    41.161167    41.161167    82.322333 
   43100    851.31673   -25317.118   -26197.339   -236.24793   -353.06747   -68.151117   -287.52521    41.161626    41.161626    82.323251 
   43200    852.69555   -25317.074    -26198.72   -248.78316   -185.10042     24.44222   -585.69127    41.161037    41.161037    82.322074 
   43300    856.42022    -25317.04   -26202.537   -213.03277    148.86845   -288.16817    -499.7986    41.159512    41.159512    82.319024 
   43400    850.13104   -25317.034   -26196.029    14.890929    342.29406    -53.85611   -243.76516     41.15742     41.15742     82.31484 
   43500    848.89048    -25317.05   -26194.762    126.48894    382.54447    330.35957   -333.43722    41.155463    41.155463    82.310926 
   43600    850.77041   -25317.038   -26196.693    212.58863    -29.34998    220.73796     446.3779    41.154734    41.154734    82.309469 
   43700     846.3463   -25317.072   -26192.154    182.64665    669.01154    43.572683   -164.64427    41.155071    41.155071    82.310142 
   43800    850.12234   -25317.106   -26196.091    71.987851    116.04541    132.63047    -32.71233    41.156333    41.156333    82.312666 
   43900    845.06743   -25317.168   -26190.927    189.60505     77.94826    362.52128     128.3456    41.157983    41.157983    82.315966 
   44000    854.23167   -25317.198   -26200.432   -195.22269   -117.95792    -642.9867    175.27653    41.160189    41.160189    82.320378 
   44100    852.32631   -25317.231   -26198.495   -345.33686   -695.30878   -185.44143   -155.26036    41.161713    41.161713    82.323426 
   44200    836.87866   -25317.261   -26182.553    146.53864    289.64764    70.917571    79.050699    41.161701    41.161701    82.323403 
   44300    854.57951   -25317.225   -26200.819   -253.08586   -160.94676    -561.8647    -36.44613    41.161001    41.161001    82.322002 
   44400    856.67931   -25317.215   -26202.981   -239.20318   -310.17031   -403.46117   -3.9780756    41.159051    41.159051    82.318102 
   44500    847.21112     -25317.2   -26193.176    102.53756   -195.67776   -142.06251    645.35294    41.156584    41.156584    82.313169 
   44600    858.64083   -25317.153   -26204.946   -117.79605   -55.483761    -94.95859   -202.94579     41.15471     41.15471    82.309419 
   44700    855.22835    -25317.12   -26201.385    211.09348   -275.51478    262.55309    646.24213    41.153775    41.153775    82.307549 
   44800    852.36721   -25317.117   -26198.424    180.05828    223.45968    -152.3796    469.09476    41.154421    41.154421    82.308842 
   44900    856.18218   -25317.109    -26202.36   -44.959751   -693.99001    153.33488    405.77587    41.156551    41.156551    82.313103 
   45000    849.39665   -25317.122   -26195.358   -36.231068    81.449592   -535.77718    345.63439    41.159067    41.159067    82.318133 
   45100    840.98504   -25317.118   -26186.656    111.47905    -17.55361    -271.6454    623.63617    41.161165    41.161165    82.322329 
   45200    844.89759   -25317.144   -26190.728   -143.59727   -592.55756    192.33468   -30.568926    41.162093    41.162093    82.324185 
   45300    852.73375   -25317.216   -26198.902   -194.61524   -381.44572   -341.68959     139.2896    41.161406    41.161406    82.322812 
   45400    849.57766    -25317.21   -26195.633   -97.846962   -169.66492   -494.95934    371.08337    41.160232    41.160232    82.320463 
   45500    850.76923    -25317.22   -26196.875   -1.6362748   -481.86294   -337.26714    814.22125    41.158088    41.158088    82.316176 
   45600     850.9403   -25317.186   -26197.018    52.938809   -314.33071     341.5611    131.58603    41.156121    41.156121    82.312243 
   45700    836.42454   -25317.124   -26181.946    442.33803    658.57083     537.0214    131.42185    41.154938    41.154938    82.309875 
   45800    845.24171   -25317.058   -26190.997    268.65257    280.01263    120.53486    405.41023    41.154756    41.154756    82.309511 
   45900    846.61916   -25316.994   -26192.357    295.48345     336.6439   -80.142653    629.94909    41.155561    41.155561    82.311121 
   46000    853.85037   -25316.933   -26199.773   -130.18437   -93.275437    50.052024   -347.32971    41.157051    41.157051    82.314101 
   46100    850.91915   -25316.874   -26196.684   -71.234845   -38.077163   -310.94668    135.31931     41.15847     41.15847     82.31694 
   46200    846.43078   -25316.837   -26192.006   -8.0880984    109.37051    76.093724   -209.72852    41.159447    41.159447    82.318893 
   46300    847.85811    -25316.76   -26193.404    -64.53502   -90.812955   -73.010719   -29.781385    41.160032    41.160032    82.320065 
   46400    843.62104   -25316.703   -26188.967    62.619836   -284.84075   -217.87483    690.57509    41.159711    41.159711    82.319422 
   46500     838.6696   -25316.674   -26183.818    200.20841    133.39521    189.38861     277.8414    41.158733    41.158733    82.317466 
   46600    848.14842   -25316.638   -26193.583    63.721047    58.664053   -308.39197    440.89106    41.157568    41.157568    82.315135 
   46700    854.81173   -25316.566     -26200.4   -10.628569   -529.11294    139.89143     357.3358     41.15704     41.15704     82.31408 
   46800    843.15116   -25316.545   -26188.322      179.478    494.36524    123.61115   -79.542369    41.156719    41.156719    82.313438 
   46900    849.39756   -25316.529   -26194.765    32.749594   -62.803834    202.93339   -41.880769    41.157167    41.157167    82.314335 
   47000     854.9523   -25316.456   -26200.436   -41.017572   -655.37396    223.84891    308.47233    41.158388    41.158388    82.316776 
   47100    841.54217   -25316.399   -26186.514    236.43105    808.31699    107.77296   -206.79679    41.159685    41.159685     82.31937 
   47200      854.224   -25316.324    -26199.55    -298.1419   -437.26772   -310.39253   -146.76546    41.161092    41.161092    82.322184 
   47300     858.7792   -25316.269   -26204.205    -350.3414    289.89799    -633.9744   -706.94779    41.161349    41.161349    82.322698 
   47400    841.43716   -25316.266   -26186.272    101.28423   -30.814264    271.65591     63.01106    41.160279    41.160279    82.320557 
   47500     858.5175   -25316.218   -26203.884   -258.13943   -330.03432    -157.2645   -287.11946    41.159037    41.159037    82.318074 
   47600    853.02858   -25316.211   -26198.202    50.016504    586.92409   -486.88644    50.011861    41.157608    41.157608    82.315217 
   47700    853.10358    -25316.27   -26198.338    77.736705   -213.59103     571.0919   -124.29075    41.156331    41.156331    82.312662 
   47800    848.49423   -25316.296   -26193.598    173.01826    31.486528    288.77386    198.79438    41.156164    41.156164    82.312327 
   47900    858.93777   -25316.329   -26204.429   -111.86842   -129.30151   -240.36514     34.06138     41.15668     41.15668    82.313361 
   48000    841.18001   -25316.416   -26186.156     248.0131    171.35601    169.56796    403.11533     41.15735     41.15735    82.314701 
   48100    859.48838   -25316.428   -26205.097   -196.67109    12.069178   -458.73151   -143.35094    41.159004    41.159004    82.318009 
   48200    851.32979   -25316.467   -26196.701   -146.25491    368.46894    33.067064   -840.30074    41.160688    41.160688    82.321377 
   48300     845.8315   -25316.498   -26191.047   -88.207951   -150.99965     82.74755   -196.37175    41.162025    41.162025     82.32405 
   48400    846.51027   -25316.507   -26191.758   -72.471175   -519.11262   -163.17578    464.87487    41.162363    41.162363    82.324725 
   48500    853.59371   -25316.523   -26199.098   -220.49971   -170.36267    -609.2975    118.16103     41.16142     41.16142    82.322839 
   48600    851.09329   -25316.534   -26196.524   -60.105259   -128.35628   -99.085711    47.126216    41.159442    41.159442    82.318885 
   48700    849.08899   -25316.529   -26194.446    52.298677   -210.93467    199.03247    168.79823    41.157233    41.157233    82.314467 
   48800    856.24659    -25316.52   -26201.838   -67.481854    59.848247   -650.42046    388.12665    41.155452    41.155452    82.310903 
   48900    857.42547   -25316.535   -26203.072   -3.6356646   -403.41984   -12.824691    405.33754    41.154356    41.154356    82.308712 
   49000    847.54509   -25316.572   -26192.893    177.53171    460.86959   -374.25675    445.98229    41.154332    41.154332    82.308665 
   49100    850.14657   -25316.598   -26195.609    219.74604     755.9635    -36.44525   -60.280125    41.155324    41.155324    82.310648 
   49200    855.58623   -25316.641   -26201.276   -135.66211   -118.79631   -186.85781    -101.3322    41.157201    41.157201    82.314401 
   49300    846.42361   -25316.668   -26191.829    44.615898    215.25254   -38.084819   -43.320029    41.159251    41.159251    82.318502 
   49400    850.44717   -25316.653   -26195.975   -66.769984   -219.95123    324.70156   -305.06028    41.161093    41.161093    82.322186 
   49500    846.72862   -25316.656   -26192.133   -105.07118    -35.76571   -141.99611   -137.45171    41.162126    41.162126    82.324252 
   49600    845.41733   -25316.613   -26190.734   -11.492126   -420.23722    487.14387   -101.38303    41.162264    41.162264    82.324528 
   49700    851.07102    -25316.55   -26196.516   -197.10739    -412.3528   -358.69407    179.72469     41.16145     41.16145      82.3229 
   49800    860.05267   -25316.466   -26205.719   -312.55423   -140.92353   -96.266022   -700.47314    41.160076    41.160076    82.320152 
   49900    852.14327   -25316.406   -26197.481   -55.174425   -48.350782    239.56982   -356.74231    41.158258    41.158258    82.316516 
   50000    849.89155   -25316.366   -26195.113    17.245646    25.402962   -191.76405    218.09803    41.156632    41.156632    82.313264 
Loop time of 1489.94 on 1 procs for 50000 steps with 8000 atoms

Pair  time (%) = 1348.29 (90.4928)
Neigh time (%) = 100.411 (6.73927)
Comm  time (%) = 8.67603 (0.582307)
Outpt time (%) = 0.651313 (0.043714)
Other time (%) = 31.9128 (2.14189)

Nlocal:    8000 ave 8000 max 8000 min
Histogram: 1 0 0 0 0 0 0 0 0 0
Nghost:    9118 ave 9118 max 9118 min
Histogram: 1 0 0 0 0 0 0 0 0 0
Neighs:    298777 ave 298777 max 298777 min
Histogram: 1 0 0 0 0 0 0 0 0 0

Total # of neighbors = 298777
Ave neighs/atom = 37.3471
Neighbor list builds = 5000
Dangerous builds = 0
unfix		1

# Melt half the system
region  liquid block INF INF INF INF INF ${nzhalf}
region  liquid block INF INF INF INF INF 10
group	liquid_group region liquid
3991 atoms in group liquid_group

# Heat up one side to Tmelt to make sure it is melted
fix 2 liquid_group npt temp ${Tmelt} ${Tmelt} 1 z 0 0 10 drag 1.0
fix 2 liquid_group npt temp 2000 ${Tmelt} 1 z 0 0 10 drag 1.0
fix 2 liquid_group npt temp 2000 2000 1 z 0 0 10 drag 1.0
run		${eqsteps}
run		50000
Memory usage per processor = 5.95825 Mbytes
Step Temp TotEng PotEng Press Pxx Pyy Pzz Lx Ly Lz 
   50000    849.89155   -25316.366   -26195.113    17.245646    25.402962   -191.76405    218.09803    41.156632    41.156632    82.313264 
   50100    850.46386   -25314.017   -26193.356    142.56545   -92.203864     277.7204    242.17982    41.156632    41.156632    82.313318 
   50200    849.58086   -25308.734   -26187.159    257.14977   -87.624568     388.1538    470.92009    41.156632    41.156632    82.313511 
   50300    858.38295   -25303.656   -26191.183    234.70393    60.111867    47.961864    596.03806    41.156632    41.156632    82.313867 
   50400    858.63183    -25298.58   -26186.364    348.52475     203.1936    83.235253    759.14541    41.156632    41.156632    82.314417 
   50500     856.1304   -25292.934   -26178.131    624.43323    441.98193    463.40212    967.91564    41.156632    41.156632    82.315359 
   50600    859.84599    -25286.94   -26175.979    715.40284    691.32237    593.21195    861.67418    41.156632    41.156632    82.316753 
   50700     864.9648   -25280.772   -26175.104    786.79522    684.85563    731.08015    944.44987    41.156632    41.156632    82.318568 
   50800    865.23788   -25274.546    -26169.16    1034.5997    1104.7871    1104.5343    894.47754    41.156632    41.156632    82.320877 
   50900    868.80128   -25268.172    -26166.47    1091.4496    544.64951    1691.4568    1038.2426    41.156632    41.156632    82.323667 
   51000    874.02273   -25261.756   -26165.454    1093.5088    759.35809    1370.7692     1150.399    41.156632    41.156632    82.326922 
   51100    879.03649   -25255.278   -26164.159    1246.1932    1261.4868     1059.557    1417.5357    41.156632    41.156632    82.330734 
   51200    875.76956   -25248.724   -26154.228    1380.4811    1298.1288    1225.6134    1617.7011    41.156632    41.156632    82.335223 
   51300    884.31216   -25242.122   -26156.459    1334.2257     1334.204    1075.0184    1593.4548    41.156632    41.156632    82.340394 
   51400    877.60019   -25235.478   -26142.875    1607.5057    1541.5263    1474.0768    1806.9139    41.156632    41.156632    82.346264 
   51500    887.03561   -25228.789   -26145.942     1626.655    1183.1839    1862.0302    1834.7509    41.156632    41.156632    82.352859 
   51600     885.9061   -25222.043   -26138.027    1749.5868    1516.4728    1618.7657    2113.5217    41.156632    41.156632    82.360227 
   51700    895.72827   -25215.318   -26141.458    1697.4839    1552.7814    1643.6535    1896.0169    41.156632    41.156632     82.36847 
   51800    897.11796   -25208.511   -26136.088    1806.3578    1986.5794    1406.9504    2025.5438    41.156632    41.156632      82.3775 
   51900    898.67303   -25201.698   -26130.883    1867.8525     1912.543    1916.2601    1774.7544    41.156632    41.156632    82.387341 
   52000    898.67966   -25194.812   -26124.004    1953.5018    1774.9539    2181.2891    1904.2623    41.156632    41.156632    82.397954 
   52100    906.76833   -25187.917   -26125.472    1872.4126    2019.8581    1369.9442    2227.4355    41.156632    41.156632    82.409379 
   52200      914.928   -25180.999   -26126.991    1828.9615    1760.6353    1604.0928    2122.1565    41.156632    41.156632    82.421696 
   52300    910.69135   -25174.056   -26115.667    2131.2547    2057.0952    2241.1598    2095.5091    41.156632    41.156632    82.434893 
   52400    926.55849   -25167.045   -26125.062    1730.7042    1743.2333    1618.2297    1830.6497    41.156632    41.156632    82.448868 
   52500    921.95394   -25160.004    -26113.26    2046.1491     2069.721    1770.3581    2298.3683    41.156632    41.156632    82.463579 
   52600    929.74374   -25152.922   -26114.232    1848.3534    1709.1842    1746.3853    2089.4907    41.156632    41.156632    82.479104 
   52700    919.81954   -25145.833   -26096.882    2238.4985    2528.4261    2207.8775    1979.1919    41.156632    41.156632    82.495395 
   52800    930.40442   -25138.695   -26100.689    2085.5833    2112.1922    1571.9548    2572.6029    41.156632    41.156632    82.512432 
   52900    918.46741   -25131.531   -26081.182    2331.1116     2254.526    2705.8049     2033.004    41.156632    41.156632    82.530335 
   53000    934.56839   -25124.342   -26090.641    2114.9212    2248.5181    2220.6417    1875.6037    41.156632    41.156632    82.548953 
   53100    935.39005   -25117.159   -26084.307    2102.2665    2499.1908    1880.0897    1927.5189    41.156632    41.156632    82.568247 
   53200    937.56295   -25109.921   -26079.316    2212.2914    2110.7003    2036.3433    2489.8308    41.156632    41.156632    82.588237 
   53300    945.11544   -25102.593   -26079.797    2027.8161    2418.1517    1853.3513    1811.9452    41.156632    41.156632    82.608941 
   53400    946.03484   -25095.279   -26073.433    2099.0635    2025.4814    1982.2654    2289.4437    41.156632    41.156632    82.630186 
   53500    950.76451   -25087.918   -26070.963    1907.7394    1998.0562    1603.1504    2122.0115    41.156632    41.156632    82.652067 
   53600        957.7   -25080.537   -26070.753    1848.0877    2014.6546    1693.2472    1836.3611    41.156632    41.156632     82.67446 
   53700    956.56671   -25073.123   -26062.167    1919.4335    2026.2846    2082.2777    1649.7382    41.156632    41.156632     82.69737 
   53800    961.47341   -25065.703   -26059.821    1871.4783    1784.6328    2106.2067    1723.5954    41.156632    41.156632    82.720704 
   53900    958.06335   -25058.216   -26048.808     2024.292    2410.6837    1761.2107    1900.9817    41.156632    41.156632    82.744408 
   54000    965.01964   -25050.714   -26048.497    1902.3777    2247.4829    1886.2299    1573.4202    41.156632    41.156632    82.768524 
   54100    968.70816    -25043.17   -26044.768    1854.9467    2226.6833    2035.8321    1302.3247    41.156632    41.156632    82.792924 
   54200    975.28884   -25035.627   -26044.029    1643.0705    1448.6784    2040.6985    1439.8347    41.156632    41.156632    82.817405 
   54300    975.14052    -25028.02   -26036.268    1802.8787    2296.5625    1801.5615    1310.5121    41.156632    41.156632     82.84203 
   54400    976.86329   -25020.427   -26030.457    1806.6734    1841.6307    2227.5954    1350.7942    41.156632    41.156632     82.86672 
   54500    983.00085   -25012.756   -26029.132    1661.0872    1329.1335    2039.7739    1614.3541    41.156632    41.156632    82.891501 
   54600    989.35076   -25005.116   -26028.057    1620.1641    2050.9466     1211.345    1598.2007    41.156632    41.156632    82.916468 
   54700    990.60376   -24997.416   -26021.653     1510.441    1814.5681    1121.5878    1595.1672    41.156632    41.156632    82.941634 
[...]
  336300     854.9606   -25294.075   -26178.063    235.75342    732.73691    -142.2774    116.80074    41.163467    41.163467    82.337839 
  336400    862.42812   -25294.076   -26185.786    101.76626    198.87673    231.05006   -124.62801    41.163352    41.163352    82.330911 
  336500    859.18946   -25294.078   -26182.438    303.29065    448.53595      183.219      278.117    41.163397    41.163397    82.333037 
  336600    851.86741   -25294.076   -26174.866    402.71766    818.90006    139.61144    249.64149    41.163641    41.163641    82.325247 
  336700     853.3333   -25294.077   -26176.382    405.46672    597.32645     339.0055    280.06822    41.164028    41.164028    82.320483 
  336800    869.68567   -25294.082   -26193.295   -154.00286    574.23403   -215.49433   -820.74829     41.16453     41.16453    82.331349 
  336900    862.32991   -25294.081   -26185.688     182.8758   -107.88464    318.57802    337.93401    41.165133    41.165133    82.315726 
  337000     852.9443    -25294.08   -26175.984    439.30178    759.28806    131.21649    427.40079    41.165789    41.165789     82.31792 
  337100    861.74121   -25294.087   -26185.086   -47.529178     54.92215   -453.59268      256.083    41.166475    41.166475    82.337888 
  337200    852.75027   -25294.081   -26175.784   -18.045477   -29.987076   -264.06823    239.91887    41.167033    41.167033    82.362125 
  337300    868.91395   -25294.089   -26192.504    -446.6493   -257.53137   -340.81177   -741.60477    41.167425    41.167425    82.370555 
  337400    862.15274   -25294.089   -26185.513   -34.072113    65.976314    -27.79829   -140.39436    41.167677    41.167677    82.339092 
  337500    857.20681   -25294.087   -26180.397    251.77596   -64.414105    470.21759     349.5244    41.167923    41.167923    82.311274 
  337600    859.61635   -25294.084   -26182.886    139.70267   0.44957248    298.49203    120.16641    41.168219    41.168219    82.314066 
  337700     857.0095   -25294.087   -26180.194    60.142665   -370.22785    117.43409    433.22175    41.168511    41.168511    82.336403 
  337800    864.45181   -25294.096   -26187.898   -560.83989   -584.42493    -488.3104   -609.78433    41.168679    41.168679    82.382138 
  337900    852.59631   -25294.091   -26175.635   -243.37854   -43.522782   -532.27547   -154.33737    41.168612    41.168612    82.388118 
  338000     859.7989   -25294.108   -26183.099   -37.712992   -425.19608   -82.583705     394.6408    41.168403    41.168403    82.341818 
  338100    860.66222   -25294.091   -26183.975    121.72093   -71.355466      195.443    241.07526    41.168163    41.168163    82.323004 
  338200    865.78824   -25294.097   -26189.281    9.8826984     207.9377   -73.579543   -104.71007    41.167956    41.167956    82.321849 
  338300    858.65895    -25294.09   -26181.903    152.97122    858.66433   -9.4440594   -390.30662     41.16789     41.16789    82.320653 
  338400    849.22877   -25294.086   -26172.148    525.60071    829.90012    324.63407    422.26794    41.168003    41.168003    82.307186 
  338500     859.0033   -25294.095   -26182.263    358.18745    486.41051    538.83426    49.317576    41.168319    41.168319     82.30015 
  338600    873.61058   -25294.102   -26197.373   -131.12267   -223.09644     -282.338    112.06644    41.168877    41.168877    82.304034 
  338700     853.5213    -25294.09    -26176.59    138.90642    115.32492   -154.70561    456.09995    41.169471    41.169471    82.323398 
  338800    861.02602   -25294.096   -26184.356   -86.290646   -372.02006    358.18987   -245.04174    41.170006    41.170006     82.34294 
  338900    864.45564   -25294.101   -26187.907   -318.17441   -217.63725   -676.97516   -59.910823    41.170405    41.170405      82.3411 
  339000    858.71288   -25294.096   -26181.964   -51.247296    339.57239    -347.1365   -146.17777    41.170651    41.170651    82.336494 
  339100    858.75697   -25294.095   -26182.008   -102.51346   -259.08631   -4.6123979    -43.84166    41.170826    41.170826    82.331776 
  339200    850.22868   -25294.091   -26173.187    94.959543    33.541794   -60.196317    311.53315    41.170893    41.170893    82.324808 
  339300    866.67282   -25294.097   -26190.195    -103.9657   -296.35489   -138.32033    122.77813    41.170971    41.170971    82.318624 
  339400    862.41827   -25294.096   -26185.795   -90.909764   -36.522654    310.24184   -546.44848    41.171078    41.171078    82.328165 
  339500    851.13165   -25294.097   -26174.126    214.25375    229.34581    82.419598    330.99585      41.1712      41.1712    82.326991 
  339600    866.20724   -25294.098   -26189.714   -157.86555   -320.30284   -174.63786    21.344045    41.171325    41.171325    82.327889 
  339700    864.81274   -25294.097   -26188.272   -128.55271   -449.21359   -16.460888    80.016333     41.17139     41.17139     82.32941 
  339800    860.27236     -25294.1   -26183.581    16.674197    404.93406   -366.17952    11.268054    41.171424    41.171424    82.324129 
  339900    862.75394   -25294.099   -26186.146    58.035133   -117.91676    46.759334    245.26282    41.171475    41.171475    82.315436 
  340000     866.5982   -25294.098   -26190.119   -174.74744    93.527888   -374.61548   -243.15472    41.171556    41.171556     82.31906 
  340100    865.83513     -25294.1   -26189.331     44.33155   -95.435459    13.053532    215.37658    41.171661    41.171661    82.316053 
  340200    869.67235   -25294.114   -26193.313   -562.93584   -280.27667   -1065.2448   -343.28608    41.171713    41.171713    82.351343 
  340300    861.55257   -25294.104   -26184.908   -655.67125   -400.04592   -1077.8638   -489.10406    41.171473    41.171473    82.397451 
  340400    859.83142   -25294.103   -26183.127     -618.794   -646.26842   -901.59433   -308.51925    41.170896    41.170896    82.404416 
  340500    866.90613    -25294.12    -26190.46   -509.99233   -690.32356   -425.51109   -414.14235    41.169985    41.169985      82.3728 
  340600    869.16723   -25294.114   -26192.791   -165.33192   -512.66033   -300.45797    317.12255    41.168958    41.168958     82.32689 
  340700    856.35178   -25294.113    -26179.54    180.93933   -102.05371    858.85658   -213.98488    41.167913    41.167913     82.32609 
  340800    864.90938   -25294.119   -26188.393    -87.68463   -168.72352   -160.81101    66.480637    41.167066    41.167066    82.340288 
  340900    860.81177   -25294.113   -26184.151   -136.53488    697.08213   -985.44479   -121.24199     41.16635     41.16635    82.356435 
  341000    866.01791   -25294.112   -26189.533    -138.9073   -470.87637   -4.0700953    58.224575    41.165721    41.165721    82.354259 
  341100    853.32555   -25294.113   -26176.411    92.079548    -109.8064      440.281   -54.235962    41.165125    41.165125    82.354515 
  341200    870.79294   -25294.119   -26194.477   -256.75312   -349.81873   -132.08269   -288.35793    41.164623    41.164623    82.350922 
  341300     850.9351    -25294.11   -26173.936    393.51053    32.442231    546.47228     601.6171     41.16419     41.16419    82.342909 
  341400    867.68982    -25294.12   -26191.269   -208.13134    207.70294   -143.14604   -688.95092    41.163836    41.163836    82.346713 
  341500    849.04834   -25294.113   -26171.988    377.43895    392.71449    136.89265     602.7097    41.163582    41.163582    82.345136 
  341600    858.62851   -25294.115   -26181.895   -169.65312    150.03661   -26.498175   -632.49779    41.163381    41.163381     82.38218 
  341700     862.1339    -25294.12   -26185.525   -162.58976   -53.288798   -49.517639   -384.96285    41.163128    41.163128    82.373745 
  341800    864.95558   -25294.122   -26188.445    67.205297     378.3484   -164.15755   -12.574965    41.162887    41.162887     82.35075 
  341900    867.56691   -25294.122   -26191.144    180.35158    620.77589   -434.03307    354.31192    41.162756    41.162756    82.330972 
  342000    858.58408   -25294.121   -26181.855    291.01799   -11.029891     362.2837    521.80017    41.162816    41.162816    82.327082 
  342100    872.10753   -25294.131   -26195.848   -367.34253    5.7433828   -1027.2571   -80.513934    41.163019    41.163019    82.364574 
  342200    860.74156   -25294.128   -26184.093   -368.89594   -198.33994   -480.70033   -427.64756    41.163079    41.163079    82.407107 
  342300     860.1805   -25294.124   -26183.509    -416.4921   -103.39041   -279.11569   -866.97019    41.162891    41.162891    82.413759 
  342400    854.25562   -25294.119   -26177.379   -53.447355   -352.98503    62.718065     129.9249    41.162529    41.162529    82.384023 
  342500    858.81438   -25294.119   -26182.092   -129.18839   -136.02796   -300.03319    48.495974    41.162088    41.162088    82.379683 
  342600    853.10399   -25294.124   -26176.192   -43.955919   -519.56122    158.50256     229.1909    41.161545    41.161545    82.378678 
  342700    853.44228   -25294.124   -26176.542   -99.358643   -448.81287   -219.95792    370.69486    41.160934    41.160934    82.393527 
  342800    855.98447   -25294.132   -26179.178   -59.198281   -419.79814    255.36559   -13.162298    41.160183    41.160183    82.394478 
  342900    859.56723   -25294.129    -26182.88    49.672428    642.01128   -495.80171    2.8077139    41.159437    41.159437    82.369362 
  343000    865.37408   -25294.131   -26188.886    18.884751    12.624112    51.113333   -7.0831918    41.158779    41.158779    82.356416 
  343100    852.29485   -25294.126   -26175.358    368.92292    371.06044   -20.312577     756.0209     41.15826     41.15826    82.360654 
  343200    853.86322   -25294.134   -26176.987    -3.254725    119.89061   -411.98517    282.33038     41.15782     41.15782    82.390095 
  343300    860.42928   -25294.132   -26183.774   -350.02084   -19.971229   -515.66251   -514.42878    41.157379    41.157379    82.418382 
  343400    879.15824   -25294.138   -26203.146   -715.38013   -767.91385   -769.34222   -608.88432    41.156863    41.156863     82.40717 
  343500     856.0124   -25294.136   -26179.211     139.8549    281.95227    147.01271   -9.4002949    41.156227    41.156227    82.375708 
  343600    865.86907    -25294.14   -26189.407    191.25467   -330.75302    1104.9015   -200.38452     41.15573     41.15573    82.350083 
  343700     862.9995   -25294.138   -26186.438    124.75616   -269.30085    365.33179    278.23754     41.15548     41.15548    82.349162 
  343800    848.58149   -25294.132   -26171.524    362.68088   -161.79949    1277.8622   -28.020067    41.155405    41.155405    82.375752 
  343900    853.36061   -25294.134   -26176.467    46.038753   -15.217722    220.98868   -67.654695    41.155436    41.155436    82.397665 
  344000    854.87511   -25294.134   -26178.034    18.903173   -353.38572    526.08276   -115.98752    41.155425    41.155425    82.404784 
  344100     857.8715   -25294.134   -26181.132    2.4839819   -272.12297    346.84003   -67.265115    41.155428    41.155428    82.403224 
  344200     872.3214   -25294.148   -26196.086   -270.25545   -35.925033    171.30397   -946.14527      41.1554      41.1554    82.386199 
  344300    864.66855   -25294.145   -26188.171    399.42195    136.95686    555.51137    505.79762    41.155522    41.155522    82.330813 
  344400    852.41083   -25294.145   -26175.497    720.88956   -5.4454142     1000.562    1167.5521    41.155889    41.155889    82.321036 
  344500    860.20989   -25294.161   -26183.577     16.05115    40.413924   -66.110109    73.849635    41.156468    41.156468    82.378685 
  344600    864.81938   -25294.158    -26188.34    -641.3979   -649.00873   -623.47996   -651.70502    41.156954    41.156954    82.438495 
  344700    861.81902   -25294.155   -26185.234   -551.26691    -587.8245    -504.7879   -561.18834    41.157146    41.157146    82.448097 
  344800    854.72472   -25294.165    -26177.91    64.886737   -126.81091   -175.83159     497.3027    41.157051    41.157051    82.396003 
  344900    861.61728    -25294.16   -26185.031    175.91601    334.51011     241.9873   -48.749365    41.156821    41.156821    82.356863 
  345000    853.64277   -25294.157   -26176.782     424.7537    664.92434    112.70096     496.6358    41.156751    41.156751    82.341839 
  345100    862.39721   -25294.159   -26185.837    69.895105    223.81803    131.68799   -145.82071    41.156883    41.156883    82.358842 
  345200    861.65595   -25294.158   -26185.069    121.29598    365.68089    229.23424   -231.02719    41.157133    41.157133    82.370491 
  345300    855.16728    -25294.16   -26178.362    366.18783    1153.7911    144.89197   -200.11957    41.157509    41.157509     82.35635 
  345400    858.29565   -25294.161   -26181.597    276.86145    391.08953     443.9303   -4.4354641    41.158056    41.158056    82.340301 
  345500    858.48482   -25294.171   -26181.803    142.28815   -214.04718   -49.731458    690.64309    41.158693    41.158693    82.363177 
  345600    857.62256   -25294.171   -26180.912   -244.00711   -243.02955   -169.59465   -319.39713    41.159226    41.159226    82.408692 
  345700    867.77796   -25294.167   -26191.408   -650.05954   -596.40695   -886.26402   -467.50766    41.159535    41.159535    82.427469 
  345800    855.79214   -25294.167   -26179.015   -233.47679   -498.22506     18.59763   -220.80295    41.159523    41.159523    82.411017 
  345900     865.3315   -25294.181   -26188.892   -70.394057    24.557159   -75.021919   -160.71741    41.159392    41.159392    82.367085 
  346000    859.81474    -25294.17   -26183.177    299.79281   -3.7033958    685.96776    217.11405    41.159299    41.159299    82.332873 
  346100    867.06139    -25294.18    -26190.68   -21.328204    -131.0042    79.821278   -12.801691    41.159344    41.159344    82.348143 
  346200    857.08239   -25294.192   -26180.374   -220.30476   -223.74424    -512.1238    74.953757    41.159417    41.159417    82.403684 
  346300    866.05383   -25294.187   -26189.645   -816.24967   -1355.3414   -916.47987   -176.92772    41.159273    41.159273    82.451946 
  346400    855.93829   -25294.185   -26179.184   -567.07719   -286.04841   -648.17511   -767.00806    41.158712    41.158712    82.458473 
  346500     859.0198    -25294.23   -26182.416   -88.524155    154.36172     92.99587   -512.93005    41.157968    41.157968    82.392737 
  346600    862.06311   -25294.208    -26185.54    631.11468    743.00247    548.04094    602.30062    41.157356    41.157356    82.303733 
  346700    850.60346    -25294.21   -26173.693    814.03297    363.94875    1200.1634    877.98677     41.15707     41.15707    82.306787 
  346800    853.43377   -25294.222   -26176.632    126.07486     212.2554    36.693924    129.27527    41.157099    41.157099    82.380658 
  346900    863.84513   -25294.217   -26187.391   -618.89818   -685.03656   -885.38936   -286.26863    41.157149    41.157149    82.436597 
  347000    847.71319   -25294.209   -26170.704   -315.74218   0.85856233    -642.0483    -306.0368    41.156867    41.156867    82.453494 
  347100    859.84448   -25294.237   -26183.275   -193.14619   -532.64841   -191.17143    144.38128    41.156359    41.156359    82.405063 
  347200    878.30703   -25294.235   -26202.362   -257.07584    473.53746   -657.81249    -586.9525    41.155811    41.155811    82.355067 
  347300     852.6293   -25294.219   -26175.797    747.66068    488.91531    875.32226    878.74448     41.15542     41.15542    82.308223 
  347400    863.53914    -25294.24   -26187.097    422.49376    209.92308    685.43646    372.12175    41.155387    41.155387    82.338414 
  347500    858.84418   -25294.246   -26182.249   -172.34443    385.38912   -95.344096   -807.07831    41.155572    41.155572    82.411962 
  347600    856.57032   -25294.233   -26179.885   -414.38849   -339.03571   -397.14522   -506.98453    41.155726    41.155726    82.444096 
  347700    862.40925   -25294.244   -26185.934   -277.15647   -76.902442     -310.121   -444.44597    41.155663    41.155663    82.422111 
  347800     867.2269   -25294.273   -26190.944    103.80297    416.98126   -49.591833   -55.980514    41.155574    41.155574    82.346602 
  347900    854.93312   -25294.241     -26178.2    776.78964    931.22312    368.81813    1030.3277    41.155698    41.155698    82.300988 
  348000    859.20167    -25294.28   -26182.653    243.19929    156.53046    204.45932    368.60809    41.156059    41.156059    82.346215 
  348100    859.64513   -25294.271   -26183.103   -376.12086    -197.5968   -673.69712   -257.06868     41.15653     41.15653    82.423846 
  348200    851.78291   -25294.263   -26174.966   -328.88161   -414.81199    7.4507421    -579.2836    41.156792    41.156792     82.43821 
  348300    862.02971   -25294.291   -26185.588   -129.87283    175.53069    36.247589   -601.39679    41.156875    41.156875    82.380843 
  348400    864.50024   -25294.292   -26188.143    525.20839    1103.3042    470.59783    1.7231207    41.157018    41.157018    82.302853 
  348500    864.41902    -25294.28   -26188.048    746.64814    941.74586    379.60298    918.59559    41.157524    41.157524    82.279716 
  348600    864.27985   -25294.325   -26187.949    67.239313    181.31631    426.40054   -405.99892    41.158319    41.158319    82.353221 
  348700    862.66933   -25294.319   -26186.278   -604.90082   -923.82639   -348.11172   -542.76434    41.159121    41.159121     82.43685 
  348800    852.96674   -25294.294    -26176.22   -632.56996   -1033.8535   -388.61842   -475.23799    41.159512    41.159512    82.466776 
  348900     866.7895   -25294.326   -26190.545   -638.24358   -632.84617   -526.21342   -755.67115    41.159428    41.159428    82.422783 
  349000    857.98235    -25294.34   -26181.453    487.55177    340.75454    424.01924    697.88154     41.15915     41.15915    82.330063 
  349100    868.81307   -25294.318   -26192.629    346.40613    424.84194    63.580802    550.79567    41.159078    41.159078    82.291472 
  349200    863.08367   -25294.326   -26186.713    323.36004    409.53958    382.44298    178.09755    41.159273    41.159273    82.321357 
  349300      867.051   -25294.337   -26190.826   -222.01277   -540.88797   -335.90178    210.75145    41.159648    41.159648    82.373341 
  349400     863.9699   -25294.326   -26187.629   -423.64987   -584.17388   -19.500919   -667.27482    41.159941    41.159941    82.425051 
  349500    860.09172   -25294.332   -26183.625   -405.75805   -325.59892   -703.79186   -187.88337     41.16002     41.16002    82.415051 
  349600    850.71902    -25294.33   -26173.933     238.0191    -68.29605    169.25193    613.10143    41.159877    41.159877    82.373933 
  349700    853.71415   -25294.323   -26177.023    242.56305   -111.11529    418.07471    420.72972    41.159664    41.159664    82.355366 
  349800    855.64793   -25294.332   -26179.031     122.3545    553.22008   -55.209479   -130.94711    41.159431    41.159431    82.375534 
  349900    863.17276   -25294.343   -26186.822   -357.97321   -743.77559   -619.45691    289.31288    41.159206    41.159206     82.40406 
  350000    858.99189   -25294.334    -26182.49   -497.89303    -421.0125   -792.35235   -280.31426    41.158801    41.158801    82.435152 
Loop time of 5866.48 on 1 procs for 200000 steps with 8000 atoms

Pair  time (%) = 5316.09 (90.6181)
Neigh time (%) = 395.508 (6.74182)
Comm  time (%) = 32.0906 (0.547015)
Outpt time (%) = 2.57015 (0.0438108)
Other time (%) = 120.22 (2.04927)

Nlocal:    8000 ave 8000 max 8000 min
Histogram: 1 0 0 0 0 0 0 0 0 0
Nghost:    7726 ave 7726 max 7726 min
Histogram: 1 0 0 0 0 0 0 0 0 0
Neighs:    298632 ave 298632 max 298632 min
Histogram: 1 0 0 0 0 0 0 0 0 0

Total # of neighbors = 298632
Ave neighs/atom = 37.329
Neighbor list builds = 20000
Dangerous builds = 0
unfix		4
