LAMMPS (13 Jan 2014)
dimension       3
boundary        p p p
units           metal

atom_style	atomic
neighbor	0.3 bin
neigh_modify	every 10 delay 0 check no

# Number of steps for the equilibration steps
variable        eqsteps equal 50000

# Number of steps to run our NPH simulation
variable        simsteps equal 200000

# Our trial melting temperature
variable	T equal 850.0
variable	T2 equal 2*${T}
variable	T2 equal 2*850

# Some high temperature to melt the crystal
variable	Tmelt equal 2000.0

#System size
variable	nx equal 4
variable	ny equal 4
variable	nz equal 20
variable	nzhalf equal ${nz}*0.5
variable	nzhalf equal 20*0.5
variable	a equal 4.050
variable	length equal ${nz}*${a}
variable	length equal 20*${a}
variable	length equal 20*4.05

lattice		fcc ${a}
lattice		fcc 4.05
Lattice spacing in x,y,z = 4.05 4.05 4.05

region         box block 0 ${nx} 0 ${ny} 0 ${nz}
region         box block 0 4 0 ${ny} 0 ${nz}
region         box block 0 4 0 4 0 ${nz}
region         box block 0 4 0 4 0 20
create_box     1 box
Created orthogonal box = (0 0 0) to (16.2 16.2 81)
  1 by 1 by 1 MPI processor grid
create_atoms   1 box
Created 1280 atoms

mass		1 26.9815

pair_style	eam/alloy
pair_coeff	* * Al_potential.alloy Al

velocity	all create ${T2} 1337
velocity	all create 1700 1337

# Create a dump file. This can be visualized with
# e.g. OVITO (http://www.ovito.org/)
dump		id all atom 1000 atomsdump

# 1 fs timestep
timestep	0.001
thermo_style	custom step temp etotal pe press pxx pyy pzz lx ly lz

# output every 100th timestep
thermo		100

# Equilibration the whole system to the trial melting temperature
fix		1 all npt temp ${T} ${T} 1 iso 0 0 3 drag 1.0
fix		1 all npt temp 850 ${T} 1 iso 0 0 3 drag 1.0
fix		1 all npt temp 850 850 1 iso 0 0 3 drag 1.0
run		${eqsteps}
run		50000
Memory usage per processor = 3.13549 Mbytes
Step Temp TotEng PotEng Press Pxx Pyy Pzz Lx Ly Lz 
       0         1700     -4067.31   -4348.3603        10058    9667.4542     9949.073    10557.473         16.2         16.2           81 
     100    812.31823   -4070.1032   -4204.3987    26302.977    27107.083    26570.605    25231.244    16.235576    16.235576     81.17788 
     200    801.54194   -4074.4338   -4206.9477    13094.016     13225.29    12529.334    13527.425    16.330999    16.330999    81.654996 
     300    785.42978   -4075.9024   -4205.7526   -111.71795     173.2616   -243.14862   -265.26682     16.43739     16.43739     82.18695 
     400     767.7078   -4074.7047   -4201.6251   -8795.8407    -9182.903   -8728.6276   -8475.9914    16.512726    16.512726    82.563628 
     500    773.64571   -4073.3384   -4201.2404   -12467.373   -12654.253   -13776.632   -10971.233    16.545188    16.545188    82.725938 
     600    775.16255   -4072.8319   -4200.9847   -11647.851   -11394.913   -11466.432   -12082.209     16.54023     16.54023    82.701152 
     700    774.67394   -4072.8294   -4200.9014   -7932.2962   -8780.4849   -7099.7477   -7916.6562    16.508972    16.508972    82.544862 
     800    780.61502   -4072.6139   -4201.6681   -2667.9831   -2342.6658   -2641.6452   -3019.6384    16.464924    16.464924    82.324621 
     900    808.22928   -4071.8123   -4205.4318    2100.1651    2232.1893    2212.6034    1855.7026    16.422482    16.422482    82.112409 
    1000    813.49814   -4070.7181   -4205.2087    5760.6047    4928.3123    6492.2615    5861.2403    16.393373    16.393373    81.966866 
    1100    827.06733   -4069.8298   -4206.5636    6873.4321    6217.0126    6378.1095     8025.174    16.383455    16.383455    81.917276 
    1200    826.45691   -4069.3387   -4205.9717    5868.3934    6772.4671    4851.1356    5981.5775    16.391998    16.391998    81.959992 
    1300    779.03171   -4069.0439   -4197.8363    4613.5006    4819.7553    3891.6081    5129.1385    16.414299    16.414299    82.071495 
    1400    828.94228   -4068.6187   -4205.6625   -533.08433   -594.22577   -554.24517   -450.78203    16.442585    16.442585    82.212925 
    1500    775.99632   -4068.0162   -4196.3068   -2027.8939   -2032.2909   -2796.3634   -1255.0275    16.467501    16.467501    82.337504 
    1600      797.297   -4067.3229    -4199.135   -4231.9871   -4448.1983   -4052.0438   -4195.7193     16.48284     16.48284    82.414199 
    1700     789.2382   -4066.7386   -4197.2184    -4107.321   -4370.9246   -4437.8102   -3513.2282    16.485281    16.485281    82.426407 
    1800    797.56954   -4066.2559    -4198.113    -3480.602    -3366.446   -2603.2572   -4472.1029    16.476376    16.476376    82.381878 
    1900    796.70566   -4065.7945   -4197.5088   -1006.5675   -1009.9562   -901.29646   -1108.4499    16.459507    16.459507    82.297535 
    2000    812.58842   -4065.2532   -4199.5933    755.13588   -13.688066   0.59224064    2278.5035    16.440899    16.440899    82.204496 
    2100    819.98252   -4064.6388   -4200.2014    2563.8498    1291.6769    3545.1672    2854.7051    16.426434    16.426434    82.132169 
    2200    805.30387    -4064.068   -4197.2038    4027.4191    3351.9723     3823.217    4907.0678    16.420235    16.420235    82.101174 
    2300    817.58363   -4063.6121   -4198.7781    3221.9614    2487.2867    3629.6738    3548.9236    16.423368    16.423368    82.116842 
    2400    832.10767   -4063.2194   -4200.7865    1649.5621    1947.4631    1488.9101     1512.313    16.434398    16.434398    82.171992 
    2500    822.69839   -4062.7991   -4198.8107    153.35956   -527.53019    1903.8274   -916.21854    16.449187    16.449187    82.245934 
    2600    790.61855   -4062.3363   -4193.0444   -863.81379    -1236.582   -868.67988   -486.17947    16.463007    16.463007    82.315036 
    2700    821.83268   -4061.8505   -4197.7189   -2499.4591     -2110.09   -2864.3526   -2523.9347     16.47211     16.47211    82.360548 
    2800    798.60053   -4061.3742   -4193.4018   -2337.9539    -1911.231   -3452.7622   -1649.8686    16.474404    16.474404    82.372022 
    2900    840.20347   -4060.9234   -4199.8289   -2528.8644    -2856.189   -2369.7601   -2360.6442    16.469837    16.469837    82.349185 
    3000    813.17381   -4060.5037   -4194.9406   -648.22793   -1709.3136    -927.9249    692.55468    16.459856    16.459856    82.299282 
    3100    831.92127   -4060.0356    -4197.572    450.35137   -645.76573    657.70474    1339.1151    16.448991    16.448991    82.244955 
    3200    815.91515   -4059.5721   -4194.4622    2097.8506    2791.5496    1667.9989    1834.0034     16.44005     16.44005    82.200251 
    3300    841.45289   -4059.1425   -4198.2546    1958.5805    1594.6147    2124.3983    2156.7285    16.435927    16.435927    82.179635 
    3400    851.66873    -4058.768    -4199.569    1614.1835    1163.0857    2208.2664    1471.1985    16.437673    16.437673    82.188365 
    3500    854.90766   -4058.4339   -4199.7704     810.0422   -194.29059    2109.2562    515.16099    16.444494    16.444494    82.222471 
    3600    809.34305   -4058.1099   -4191.9135    809.11599   -494.78371    2481.0141    441.11756    16.454077    16.454077    82.270383 
    3700    836.46428   -4057.7552   -4196.0426   -960.45607   -1771.8417   -394.01624   -715.51025    16.463733    16.463733    82.318663 
    3800    818.33253   -4057.4084   -4192.6982   -1175.8182   -1793.1498    -198.2602   -1536.0445    16.470513    16.470513    82.352563 
    3900    850.69152   -4057.0624   -4197.7019   -2153.8618   -2111.5002   -2088.9644   -2261.1208    16.472989    16.472989    82.364946 
    4000    842.06002   -4056.7472   -4195.9597   -2057.6655   -1418.0391   -1626.3446   -3128.6127    16.470536    16.470536     82.35268 
    4100    820.88729   -4056.4366   -4192.1488   -695.85712   -1920.8537    1338.8216   -1505.5393    16.464092    16.464092    82.320461 
    4200    863.94445   -4056.1124   -4198.9429   -330.93913    330.11743   -223.75113   -1099.1837    16.456157    16.456157    82.280786 
    4300    822.75591   -4055.7978   -4191.8188    1475.9372    1211.2628    1175.5521    2040.9967    16.448987    16.448987    82.244937 
    4400     841.7725   -4055.4821   -4194.6471    1809.4643    2081.8619    1598.7753    1747.7556    16.445538    16.445538    82.227692 
    4500    872.98567   -4055.2116   -4199.5368    955.94425     1317.264    723.22077      827.348    16.446319    16.446319    82.231594 
    4600    841.07028   -4054.9772    -4194.026    1102.8418    1618.5784    1411.2436    278.70332     16.45076     16.45076      82.2538 
    4700    842.64452   -4054.7555   -4194.0647    80.674127   -1011.9514    808.77532    445.19847    16.457664    16.457664    82.288319 
    4800    836.76414     -4054.51    -4192.847   -414.71722   -396.62527    1040.8738   -1888.4002    16.465042    16.465042    82.325211 
    4900    812.76467   -4054.2716   -4188.6409    -624.0787   -894.92163    -887.4553   -89.859159    16.470578    16.470578    82.352891 
    5000    831.30199   -4054.0335   -4191.4675    -1348.161   -1330.8008   -1169.1694   -1544.5129    16.472851    16.472851    82.364257 
    5100    836.87273   -4053.8123   -4192.1673    -1069.433   -674.89359   -1270.0183   -1263.3872    16.470975    16.470975    82.354873 
    5200    849.36651   -4053.6137   -4194.0341   -975.21978   -1530.5154   -661.50315   -733.64083    16.465807    16.465807    82.329034 
    5300    850.17795   -4053.4133   -4193.9679   -143.66268   -343.73419   -683.28887    596.03501    16.459187    16.459187    82.295935 
    5400    829.08224   -4053.2193   -4190.2863    1433.2076    873.18829    1693.7992    1732.6353    16.452967    16.452967    82.264837 
    5500    844.07077   -4053.0192   -4192.5642    1195.2524    788.47061    1078.6862    1718.6004    16.449778    16.449778    82.248891 
    5600    852.59065   -4052.8443   -4193.7978    1035.9005    54.174165    1788.0092    1265.5182     16.44987     16.44987    82.249351 
    5700    842.43444   -4052.6996    -4191.974    858.80695    1296.7787    154.30638    1125.3358    16.452854    16.452854    82.264272 
    5800    860.67167   -4052.5804   -4194.8699     94.09265   -11.706708   -681.31489    975.29955    16.457562    16.457562    82.287811 
    5900    830.02095   -4052.4559   -4189.6781    302.43048   -614.73014    517.70065    1004.3209    16.463071    16.463071    82.315356 
    6000    850.87081   -4052.3332   -4193.0023   -1074.2553   -927.74998   -1024.3868   -1270.6292    16.467818    16.467818    82.339091 
    6100    841.65679    -4052.199   -4191.3449   -982.22585   -1070.0827   -618.35391    -1258.241    16.470232    16.470232    82.351161 
    6200    820.00179   -4052.0926   -4187.6584   -214.96441   -524.79478   -636.45086     516.3524    16.469518    16.469518    82.347591 
    6300    848.82483   -4051.9936   -4192.3244   -734.30817    -954.3713   -780.60973   -467.94348    16.466639    16.466639    82.333195 
    6400    849.43539    -4051.894   -4192.3258    75.661495      96.7748    355.72949    -225.5198    16.462553    16.462553    82.312763 
    6500    861.01271   -4051.7933   -4194.1392    124.36134   -185.42834    -1050.096    1608.6083    16.458738    16.458738    82.293688 
    6600    847.90315   -4051.6909   -4191.8694    849.02093    186.50568    1002.8017    1357.7554    16.456525    16.456525    82.282625 
    6700    836.24081   -4051.5878   -4189.8382    1363.2187    1876.4694    1653.0267    560.15987     16.45667     16.45667    82.283351 
    6800    841.11941   -4051.4892   -4190.5462    573.83983    828.92124    701.73362    190.86461    16.459247    16.459247    82.296237 
    6900     853.2025   -4051.3918   -4192.4464     139.1443   -342.02156     526.8164    232.63807    16.462878    16.462878    82.314389 
    7000    836.47566   -4051.3245   -4189.6138    97.188369    342.79145   -240.16206    188.93571    16.465808    16.465808    82.329041 
    7100    834.54767   -4051.2618   -4189.2323   -262.27613   -505.26893    421.11105   -702.67051    16.467843    16.467843    82.339214 
    7200    875.29956   -4051.1933   -4195.9011   -1297.8482    -1188.252   -1128.6329   -1576.6597     16.46871     16.46871    82.343548 
    7300    836.90353   -4051.1538   -4189.5138   -119.09299   -452.83576   -256.95877    352.51554    16.467499    16.467499    82.337493 
    7400    845.57333   -4051.0999   -4190.8932   -208.98383   -778.59373   -371.74537    523.38763    16.465491    16.465491    82.327455 
    7500    815.46147   -4051.0606   -4185.8757     754.1253    591.82812    773.46692    897.08085    16.462555    16.462555    82.312776 
    7600    842.94823   -4051.0274   -4190.3867    329.79354   -88.104215    1698.1939   -620.70905    16.459772    16.459772    82.298858 
    7700    845.27477   -4050.9968   -4190.7408    557.79427    1499.8569   -372.29585    545.82177    16.457682    16.457682    82.288411 
    7800    845.86226   -4050.9834   -4190.8245    814.87238       851.57    388.32826    1204.7189     16.45688     16.45688      82.2844 
    7900    852.15432   -4050.9749   -4191.8563    543.01525    160.48638    450.73438     1017.825    16.457877    16.457877    82.289386 
    8000    840.04999   -4050.9694   -4189.8496    400.61773    729.70758    229.04781    243.09779     16.46027     16.46027    82.301351 
    8100     863.1159   -4050.9577   -4193.6512   -334.55026   -652.46974   -183.98811   -167.19294    16.463292    16.463292    82.316461 
    8200    851.88425   -4050.9606   -4191.7973   -397.17467   -438.10746   -801.15707    47.740521    16.465765    16.465765    82.328824 
    8300    858.41221   -4050.9495   -4192.8654      -694.15   -712.43192   -712.93471   -657.08337    16.467525    16.467525    82.337624 
    8400    845.09762   -4050.9348   -4190.6495    -368.4751   -1212.1999   -108.15269    214.92729    16.467934    16.467934    82.339669 
    8500    849.57547   -4050.9286   -4191.3836   -632.95913    -1580.184   -356.48767    37.794259    16.466853    16.466853    82.334266 
    8600    844.61517   -4050.9299   -4190.5649   -160.23069   -524.55925   -341.56323    385.43041     16.46413     16.46413    82.320649 
    8700    851.54022   -4050.9213   -4191.7011    132.98086   -825.58701     1266.167   -41.637426    16.460947    16.460947    82.304735 
    8800    868.53919   -4050.9139    -4194.504   -25.006703   -925.48284   -465.80842    1316.2711    16.458375    16.458375    82.291875 
    8900     838.7043   -4050.9124   -4189.5701    729.73649     1731.607   -365.75413    823.35656    16.456882    16.456882    82.284411 
    9000    859.54328   -4050.8861    -4192.989    456.93961     76.26764    1039.1078    255.44338    16.457676    16.457676    82.288381 
    9100    856.42213   -4050.8769   -4192.4638    331.54908    783.61042    120.93979    90.097019    16.459731    16.459731    82.298655 
    9200    848.06677   -4050.8832   -4191.0888     132.5339   -20.892743    1523.2337   -1104.7392    16.462281    16.462281    82.311407 
    9300    838.95621   -4050.9008   -4189.6002    104.66776    78.178759    285.23169   -49.407173    16.464712    16.464712    82.323559 
    9400    859.16935   -4050.8911   -4192.9322   -537.84202   -2322.9075    126.25243      583.129    16.466973    16.466973    82.334865 
    9500    855.72065   -4050.8996   -4192.3705   -688.72233   -1398.2695    398.82971   -1066.7272    16.467965    16.467965    82.339824 
    9600    832.21491   -4050.9141   -4188.4989 -0.035095207   -609.48366    986.67208   -377.29371    16.467418    16.467418    82.337091 
    9700    864.45035    -4050.923   -4193.8372    -676.1304   -795.49752   -1099.3389   -133.55475    16.465985    16.465985    82.329923 
    9800    836.01111   -4050.9479   -4189.1604    169.16198    839.73165   -699.78828    367.54258    16.463281    16.463281    82.316407 
    9900     856.0301   -4050.9842   -4192.5063   -3.0253833   -206.55464   -1074.8171    1272.2956    16.460252    16.460252    82.301258 
   10000    842.00032   -4051.0059   -4190.2085    625.10429    142.43834   -109.77647     1842.651    16.457946    16.457946    82.289731 
   10100     857.6168   -4051.0226    -4192.807    379.86754    879.62555    18.047242    241.92984    16.457052    16.457052     82.28526 
   10200    835.36241   -4051.0314   -4189.1366    993.25228    1045.6636    -45.78901    1979.8823    16.457686    16.457686    82.288429 
   10300     851.6494   -4051.0537   -4191.8515    338.22213   -5.1259495   -72.219941    1092.0123    16.459543    16.459543    82.297714 
   10400    847.49626   -4051.0781   -4191.1894    2.5778092    562.71242   -327.79541   -227.18358    16.462263    16.462263    82.311315 
   10500    827.11207   -4051.0892   -4187.8305    240.92505   -21.155917    -219.4393    963.37038    16.465108    16.465108    82.325539 
   10600    873.23707   -4051.1068   -4195.4736   -1106.9138   -2313.0113   -337.06217   -670.66811    16.467041    16.467041    82.335203 
   10700    836.14026   -4051.1294   -4189.3632   -431.88329   -30.534074   -88.755614   -1176.3602    16.467488    16.467488    82.337439 
   10800    866.19858   -4051.1289   -4194.3321   -853.74489   -1083.2722     167.1011   -1645.0636    16.466826    16.466826    82.334128 
   10900    852.11765   -4051.1324   -4192.0077     -251.921    -640.5625   -950.84901    835.64853    16.464799    16.464799    82.323996 
   11000    827.82429   -4051.1208   -4187.9798    658.81272    600.16886    1644.8541   -268.58478     16.46277     16.46277     82.31385 
   11100    844.91492   -4051.1079   -4190.7923    389.50263    558.54859   -242.48482    852.44411    16.461415    16.461415    82.307073 
   11200    852.98032   -4051.0986   -4192.1165    407.90667    626.30146    1007.9822   -410.56366    16.461064    16.461064    82.305322 
   11300    871.77702   -4051.0978   -4195.2233    -210.5243    961.85856   -226.14346    -1367.288    16.461662    16.461662    82.308309 
   11400    859.47841   -4051.1099    -4193.202   -374.92562    -929.3763   -179.56526   -15.835302    16.462605    16.462605    82.313024 
   11500    848.57639   -4051.1062    -4191.396   -157.19915   -599.36561   -177.22169    304.98986    16.463899    16.463899    82.319497 
   11600    848.98698   -4051.0994   -4191.4571   -136.12785    222.23565    93.677087   -724.29627    16.465089    16.465089    82.325446 
   11700    851.23276   -4051.0823   -4191.8113   -152.95409   -1588.4107   -491.76058     1621.309    16.465996    16.465996     82.32998 
   11800    843.28703   -4051.0825   -4190.4978   -259.26585    42.931018    2.1424559   -822.87104    16.465843    16.465843    82.329217 
   11900     861.8112   -4051.0875   -4193.5653   -654.20374   -647.75394   -636.48819   -678.36908    16.464719    16.464719    82.323593 
   12000    832.82453   -4051.0809   -4188.7665     322.4049    447.02774    379.41267    140.77429    16.463195    16.463195    82.315975 
   12100    872.23387   -4051.0567   -4195.2577   -295.76541   -1053.8094    646.67169   -480.15847    16.461927    16.461927    82.309637 
   12200    839.94471   -4051.0599   -4189.9227    589.89438    200.76948    84.056982    1484.8567    16.460529    16.460529    82.302644 
   12300    843.35276   -4051.0467   -4190.4729    523.04865    279.50079     1113.597    176.04817    16.460445    16.460445    82.302226 
   12400    869.37708   -4051.0321   -4194.7608   -408.53591   -1329.2447   -490.27124    593.90818    16.461306    16.461306     82.30653 
   12500    854.75762   -4051.0153    -4192.327    231.34269    4.4398977    529.30747    160.28071    16.462468    16.462468     82.31234 
   12600    851.24446    -4051.001   -4191.7319   -99.937051    320.20244   -420.50994   -199.50365    16.464051    16.464051    82.320253 
   12700    840.33464   -4050.9915   -4189.9187    80.056777   -504.63894    786.76519   -41.955915    16.465359    16.465359    82.326794 
   12800    863.12582   -4050.9726   -4193.6677   -865.49782   -621.46498   -2502.6687    527.64024    16.466289    16.466289    82.331443 
   12900    863.83886   -4050.9529   -4193.7659   -695.84287   -1647.2891   -758.40666    318.16719     16.46604     16.46604    82.330199 
   13000    844.13988   -4050.9519   -4190.5082   -129.59701    269.71919   -1274.5931    616.08288    16.464328    16.464328    82.321642 
   13100     850.3698   -4050.9283   -4191.5146    213.54522    1062.2068   -398.51173   -23.059366    16.462608    16.462608    82.313038 
   13200    848.65565   -4050.9061    -4191.209    514.85358    297.30524    548.37735    698.87813    16.461064    16.461064    82.305319 
   13300    836.54084   -4050.9002   -4189.2003    766.77257    1264.8998    31.847861      1003.57    16.460414    16.460414    82.302071 
   13400    852.93787   -4050.9032   -4191.9141    385.85597    1466.6007    176.21846   -485.25129    16.460917    16.460917    82.304587 
   13500    855.04317   -4050.8964   -4192.2553    131.85795    113.27316   -208.01261     490.3133    16.462543    16.462543    82.312717 
   13600    850.01212   -4050.9031   -4191.4302   -338.86163   -2295.2591   -67.670227    1346.3444    16.464457    16.464457    82.322287 
   13700    820.23103   -4050.8986   -4186.5022    553.04619    1204.1922   -755.58724    1210.5336    16.466037    16.466037    82.330184 
   13800    858.04012   -4050.9101   -4192.7645   -864.20313   -1053.3807    97.541587   -1636.7703    16.466649    16.466649    82.333245 
   13900     821.2189    -4050.919   -4186.6859   -21.084434    231.01413   -1112.6097    818.34223     16.46593     16.46593    82.329652 
   14000    860.37865   -4050.9253   -4193.1663   -571.48592   -1318.2157   -399.39619    3.1540951    16.464089    16.464089    82.320446 
   14100    844.03103   -4050.9485   -4190.4868    200.32895    5.1554539    5.2938751    590.53752    16.461357    16.461357    82.306784 
   14200    839.35312   -4050.9488   -4189.7138    675.49966    955.58101    305.41138    765.50659    16.459703    16.459703    82.298517 
   14300    833.14333   -4050.9398   -4188.6782     825.9644    1142.0017   -348.84335    1684.7349    16.459583    16.459583    82.297914 
   14400    872.05747   -4050.9301   -4195.1019   -180.30668   -560.65871   -504.56151    524.30018    16.460715    16.460715    82.303573 
   14500    853.72139   -4050.9433   -4192.0837   -30.304865   -819.93335   -321.32148    1050.3402    16.462319    16.462319    82.311596 
   14600    838.44617   -4050.9586   -4189.5736    143.31678    905.04141    3.2585061   -478.34958    16.464077    16.464077    82.320385 
   14700    864.27532   -4050.9701   -4193.8553   -620.43498   -1014.5028   -30.374725   -816.42739    16.465547    16.465547    82.327736 
   14800    879.99585   -4050.9892   -4196.4734   -1360.1666   -721.02689   -1531.9093   -1827.5636    16.466099    16.466099    82.330496 
   14900    830.91744    -4050.997   -4188.3674    183.18308   -474.25904   -537.26411    1561.0724    16.465565    16.465565    82.327826 
   15000    867.10647   -4050.9964   -4194.3496   -578.17053   -283.01518   -872.01543   -579.48097    16.464444    16.464444    82.322218 
   15100    834.84922   -4050.9968   -4189.0172    490.27705    1070.1551    143.62062    257.05544    16.462789    16.462789    82.313943 
   15200    862.13416   -4051.0111   -4193.5424   -81.250444   -899.20569   -236.90893    892.36328    16.461223    16.461223    82.306113 
   15300    839.96461   -4051.0249    -4189.891    522.87303     437.5387    452.03399    679.04639    16.460212    16.460212    82.301062 
   15400    858.16779   -4051.0229   -4192.8984   -82.735874   -391.71857   -51.485299    194.99624    16.460229    16.460229    82.301145 
   15500    861.70167   -4051.0367   -4193.4964   -118.08131    294.76856     389.2893   -1038.3018    16.460697    16.460697    82.303485 
   15600    844.22185   -4051.0384   -4190.6083    232.57563   -5.1028378   -739.65717    1442.4869    16.462148    16.462148    82.310738 
   15700    856.16896   -4051.0328   -4192.5778   -308.97045    189.23603   -1400.5447    284.39734    16.464151    16.464151    82.320755 
   15800    840.27274   -4051.0464   -4189.9634   -173.19961   -237.93718    514.01443    -795.6761    16.465525    16.465525    82.327623 
   15900    848.13116   -4051.0611   -4191.2773    -504.2823   -56.554323   -900.04118   -556.25138    16.465972    16.465972    82.329862 
   16000    835.99784   -4051.0723   -4189.2826    207.99058    245.35336    298.61189    80.006495    16.465341    16.465341    82.326704 
   16100    859.64172   -4051.0826   -4193.2017   -367.72306    318.94291    -699.7389   -722.37318    16.464236    16.464236    82.321181 
   16200    862.95248    -4051.097   -4193.7636   -380.83655   -413.99063   -1233.7561    505.23707    16.462759    16.462759    82.313795 
   16300    867.44232   -4051.1031   -4194.5119   -52.999051    14.643719    407.65987   -581.30074    16.461545    16.461545    82.307724 
   16400    845.19668   -4051.1281   -4190.8591    413.16879    289.90235    344.75835    604.84568    16.460735    16.460735    82.303676 
   16500     863.0469   -4051.1424   -4193.8245    38.438948    679.63061   -221.99656   -342.31721    16.460943    16.460943    82.304713 
   16600    870.74815   -4051.1492   -4195.1046   -546.15316   -561.28888    -533.7567    -543.4139     16.46191     16.46191    82.309549 
   16700    853.50376   -4051.1484   -4192.2528   -291.28952   -1069.9921    290.87181   -94.748309    16.463112    16.463112    82.315559 
   16800    847.23135   -4051.1467   -4191.2141    98.804904    152.82908    1248.9842   -1105.3986    16.463948    16.463948    82.319739 
   16900     868.4155   -4051.1446   -4194.7143   -525.85532   -419.62216   -508.87873   -649.06507    16.464491    16.464491    82.322457 
   17000     846.4887   -4051.1594   -4191.1041   -76.697092    104.28698    -208.8233   -125.55495    16.464148    16.464148    82.320741 
   17100    875.65436   -4051.1568   -4195.9232   -770.82521   -401.63791   -1393.6275   -517.21024    16.463685    16.463685    82.318425 
   17200    856.98556   -4051.1558   -4192.8359    -168.3244    -843.6006   -271.98206    610.60947     16.46283     16.46283    82.314152 
   17300    863.99838   -4051.1576   -4193.9971     18.39939    510.00366   -1003.2022    548.39673    16.462121    16.462121    82.310605 
   17400    843.51425   -4051.1684   -4190.6213    577.73491    820.43076    428.03748     484.7365    16.462017    16.462017    82.310084 
   17500    851.80438   -4051.1761   -4191.9996    65.765797      270.264   -201.42605    128.45944    16.462635    16.462635    82.313173 
   17600     863.4909   -4051.1931   -4193.9486   -349.64357   -459.16761   -681.20899    91.445878    16.463297    16.463297    82.316487 
   17700    851.15499   -4051.2085   -4191.9246   -232.78466    301.10154   -454.14351   -545.31202    16.463934    16.463934    82.319672 
   17800    835.86646   -4051.2026   -4189.3911    155.73335    601.61088   -104.31088   -30.099961    16.464532    16.464532     82.32266 
   17900     857.4225   -4051.2173   -4192.9696   -293.95708   -550.98225   -379.61818    48.729183    16.464173    16.464173    82.320865 
   18000    857.12263   -4051.2221   -4192.9248   -290.39088   -900.39848    853.10668   -823.88085    16.463656    16.463656     82.31828 
   18100    851.90641    -4051.217   -4192.0573    3.4665973    348.84905    169.82522   -508.27448     16.46306     16.46306      82.3153 
   18200    846.00435   -4051.2146   -4191.0792    88.309402    23.719847    450.90046    -209.6921    16.462441    16.462441    82.312206 
   18300    837.11706   -4051.2157    -4189.611    521.47742    939.94792   -555.89656    1180.3809    16.461766    16.461766     82.30883 
   18400    855.33514    -4051.232   -4192.6392    124.26673    756.09993    39.473305   -422.77304    16.461321    16.461321    82.306605 
   18500    862.78932   -4051.2359   -4193.8754   -61.671676    494.12553   -249.76884   -429.37173    16.461767    16.461767    82.308833 
   18600    850.56253   -4051.2424   -4191.8605   -100.00967     1143.973      197.519   -1641.5211    16.462485    16.462485    82.312425 
   18700    853.45196   -4051.2441   -4192.3399    -171.2812    801.36968   -1086.4423   -228.77097    16.463373    16.463373    82.316864 
   18800    857.54009   -4051.2495   -4193.0213   -294.75961   -139.55517   -701.47604   -43.247613    16.463939    16.463939    82.319695 
   18900    838.56143   -4051.2552   -4189.8893   -35.572541   -228.55865   -1162.0787    1283.9197    16.464094    16.464094    82.320472 
   19000    848.53832   -4051.2345    -4191.518   -64.471127    163.83522    17.965404   -375.21401    16.464281    16.464281    82.321405 
   19100    835.02151   -4051.2221   -4189.2709    200.24972    1791.8428   -209.52605   -981.56757    16.463887    16.463887    82.319436 
   19200    877.87965   -4051.1994   -4196.3338   -796.99386   -1879.3243   -285.27688   -226.38044    16.463317    16.463317    82.316586 
   19300    815.36905   -4051.1764   -4185.9763     875.4015    640.72822    1150.3863    835.09001     16.46272     16.46272      82.3136 
   19400     862.6094    -4051.142   -4193.7518   -83.803754   -504.73654   -1079.8372    1333.1624    16.462724    16.462724    82.313622 
   19500    849.56627     -4051.12   -4191.5734    146.54297   -902.53578    149.92739    1192.2373    16.462703    16.462703    82.313515 
   19600    844.66487   -4051.1184   -4190.7615    50.563742   -553.35732   -22.485755     727.5343    16.462491    16.462491    82.312454 
   19700    849.99108   -4051.0968   -4191.6205    81.226522   -780.28174    309.36215    714.59915     16.46256     16.46256    82.312801 
   19800    867.32416   -4051.0731   -4194.4624   -602.95443    -1119.462   -509.01403   -180.38728    16.462736    16.462736    82.313682 
   19900    835.67129   -4051.0825   -4189.2388    443.49477   -495.39799    720.59912    1105.2832    16.462099    16.462099    82.310497 
   20000     861.1435   -4051.0871   -4193.4546   -102.24784    576.61032    84.931012   -968.28484    16.461903    16.461903    82.309516 
   20100    877.48503   -4051.0852   -4196.1543   -566.59619   -546.68004    -1577.917    424.80852    16.462343    16.462343    82.311715 
   20200    836.27341   -4051.0936   -4189.3495     337.5925    2.7831514    732.51606     277.4783    16.462825    16.462825    82.314123 
   20300    867.32569    -4051.077   -4194.4665   -642.04311   -767.23112   -195.48533   -963.41287    16.463844    16.463844    82.319221 
   20400    828.28442   -4051.0812   -4188.0163    332.17678    960.62265    300.90659   -264.99889    16.464193    16.464193    82.320963 
   20500     852.7601   -4051.0762   -4192.0577   -125.33885   -239.85876    397.33346   -533.49123    16.464316    16.464316    82.321581 
   20600    828.75942   -4051.0649   -4188.0785    482.43913    166.39814    413.71053    867.20871    16.463979    16.463979    82.319896 
   20700    854.08615   -4051.0498   -4192.2505   -35.981412     285.5091   -36.029455   -357.42388     16.46349     16.46349    82.317451 
   20800    861.45833   -4051.0423   -4193.4618   -166.03365       -380.8   -682.98348    565.68253    16.463003    16.463003    82.315014 
   20900    870.85337   -4051.0457   -4195.0185   -193.03717   -1274.4195    967.36561   -272.05758    16.462794    16.462794    82.313968 
   21000    856.60831   -4051.0613   -4192.6789      131.625    572.85352   -748.69471    570.71619    16.463044    16.463044     82.31522 
   21100    867.66659   -4051.0899   -4194.5358   -442.38619   -874.74712   -91.562345   -360.84911     16.46369     16.46369     82.31845 
   21200    876.73081   -4051.1072   -4196.0516   -673.46588   -596.77484   -800.39047   -623.23233    16.464678    16.464678    82.323388 
   21300    852.48557   -4051.1392   -4192.0753   -184.26087   -757.20226   -35.098996    239.51863    16.465154    16.465154    82.325771 
   21400    856.63425   -4051.1824   -4192.8044   -406.34732     -510.976   -1067.2577    359.19173    16.464864    16.464864    82.324321 
   21500    848.79813   -4051.2121   -4191.5386    9.1333925   -147.43992   -5.8642773    180.70437    16.464176    16.464176    82.320879 
   21600    851.55879   -4051.2326   -4192.0155   -38.275045    757.83283    -557.9197   -314.73827    16.463396    16.463396    82.316979 
   21700    844.79111   -4051.2561   -4190.9201    58.375993    1418.0972   -624.67104    -618.2982    16.462387    16.462387    82.311936 
   21800    863.08611   -4051.2715   -4193.9601    -103.8382    12.721807    292.88337   -617.11979    16.461515    16.461515    82.307576 
   21900    835.70396    -4051.307   -4189.4687     567.0639    811.66247    604.92183    284.60739    16.460804    16.460804     82.30402 
   22000    874.84537   -4051.3234   -4195.9561   -354.46043    22.652176   -1253.7363    167.70286    16.461023    16.461023    82.305113 
   22100    838.44318   -4051.3501   -4189.9647    330.48586    769.00429   -444.02842    666.48172    16.461563    16.461563    82.307814 
   22200    836.44255   -4051.3604   -4189.6442    506.58537    1048.1428   -2.5782289    474.19158    16.462702    16.462702    82.313509 
   22300    875.72634   -4051.3744   -4196.1528   -622.82027   -101.93077   -1393.0997   -373.43034    16.463916    16.463916    82.319579 
   22400    812.25561   -4051.4028    -4185.688    769.76993    724.41044    956.23339    628.66596    16.464541    16.464541    82.322703 
   22500    848.95654   -4051.4258   -4191.7785   -308.15235   -8.0937166   -1562.5793      646.216    16.465164    16.465164    82.325822 
   22600    837.91904   -4051.4295   -4189.9574    271.04428   -1351.8393      1497.14    667.83214    16.465312    16.465312     82.32656 
   22700    862.01856   -4051.4314   -4193.9436   -524.17426    3.9432137   -976.99984   -599.46617    16.465104    16.465104    82.325518 
   22800    847.28537   -4051.4581   -4191.5344   -64.206897   -606.65043    299.37099    114.65875    16.463759    16.463759    82.318797 
   22900    850.48193   -4051.4617   -4192.0666    165.51248   -1064.8558   -305.07622    1866.4695    16.462422    16.462422    82.312112 
   23000    855.04392   -4051.4702   -4192.8293   -36.523441   -264.51881    581.92918   -426.98069    16.461042    16.461042    82.305211 
   23100    853.37073   -4051.4836    -4192.566    79.738657   -644.54395   -20.720214    904.48013    16.459742    16.459742    82.298711 
   23200     841.7072   -4051.4912   -4190.6454    619.85937    587.00884    525.03073    747.53856    16.459432    16.459432    82.297161 
   23300    848.96614   -4051.4867   -4191.8409    326.50568   -32.279467    297.42738    714.36913    16.460184    16.460184    82.300922 
   23400    846.69006   -4051.5029   -4191.4808    48.945827    544.53161   -294.52922   -103.16491    16.461272    16.461272     82.30636 
   23500    860.04436   -4051.5194   -4193.7052    -156.0194   -320.61948    -47.01002   -100.42871    16.462467    16.462467    82.312333 
   23600    861.79926   -4051.5448   -4194.0207   -340.69964   -128.71893   -591.67632   -301.70368     16.46338     16.46338      82.3169 
   23700    841.93706   -4051.5644   -4190.7565    22.858838    1045.3915   -437.68902     -539.126    16.464077    16.464077    82.320386 
   23800    864.63984   -4051.5676   -4194.5131   -720.72896   -630.01007   -635.85003   -896.32677    16.464676    16.464676    82.323378 
   23900    840.53315   -4051.5744   -4190.5345   -100.54938   -40.181836    58.941994   -320.40831    16.464594    16.464594    82.322971 
   24000    843.91839   -4051.5855   -4191.1052   -143.58563   -31.721886     759.0574   -1158.0924    16.463784    16.463784    82.318922 
   24100    844.97575    -4051.573   -4191.2676    98.165402    152.08117    -993.0633    1135.4783    16.462916    16.462916    82.314579 
   24200    862.15119   -4051.5564   -4194.0904   -484.43332    213.72737   -1942.0577    275.03037    16.462064    16.462064    82.310321 
   24300    869.10557   -4051.5341   -4195.2178   -505.59867    -1312.991    148.40618   -352.21116     16.46116     16.46116    82.305799 
   24400    832.64468   -4051.5142   -4189.1701    649.25098     827.5499    771.35335    348.84968    16.460583    16.460583    82.302916 
   24500    858.28598   -4051.4872   -4193.3822   -80.402153   -873.15351   -122.67522    754.62227    16.460929    16.460929    82.304643 
   24600    865.01317   -4051.4601   -4194.4673    -311.0351   -415.72212    368.20654   -885.58972    16.461919    16.461919    82.309594 
   24700    839.58578   -4051.4441   -4190.2475    97.557062    616.68506   -436.36494    112.35107    16.462767    16.462767    82.313834 
   24800    843.25237    -4051.417   -4190.8267   -22.376673    141.06676    595.22263   -803.41941    16.463536    16.463536    82.317678 
   24900     851.8446   -4051.3836   -4192.2137   -191.71517    837.19578    -996.2338   -416.10749    16.463961    16.463961    82.319803 
   25000    873.57702   -4051.3486   -4195.7716   -798.47862   -500.82896   -1989.9138    95.306904    16.463895    16.463895    82.319475 
   25100    853.67176   -4051.3285   -4192.4607   -169.52512    241.56215   -986.49821    236.36071    16.462821    16.462821    82.314107 
   25200    848.31857   -4051.2949   -4191.5421    203.69837    1399.5517   -1670.1095    881.65287    16.461756    16.461756    82.308782 
   25300    831.08246   -4051.2692   -4188.6668    576.70789    486.04777   -632.48772    1876.5636    16.460935    16.460935    82.304677 
   25400    860.86832   -4051.2435   -4193.5654   -25.752275    259.63811   -1775.6555    1438.7605    16.460689    16.460689    82.303446 
   25500    853.26297   -4051.2149   -4192.2795    289.02251    933.40849   -645.35631    579.01535      16.4611      16.4611    82.305498 
   25600     843.5014    -4051.207   -4190.6578    289.72067   -118.22288   -822.22386    1809.6088      16.4617      16.4617    82.308499 
   25700    841.72988   -4051.1868   -4190.3447    191.16521   -217.90776     146.3532    645.05019    16.462778    16.462778    82.313892 
   25800    863.40864   -4051.1506   -4193.8925   -666.62665   -155.49795   -1254.5415   -589.84054    16.464171    16.464171    82.320853 
   25900    852.67936   -4051.1361   -4192.1042   -532.84492    268.79424    -682.0669   -1185.2621    16.464523    16.464523    82.322617 
   26000    872.03623   -4051.1098   -4195.2781    -637.5138   -290.94671   -528.44039   -1093.1543    16.464379    16.464379    82.321896 
   26100    836.75972   -4051.0844   -4189.4207    285.59735    631.20612    344.49306   -118.90713    16.463913    16.463913    82.319563 
   26200    832.87434    -4051.053   -4188.7469    458.86539    1116.1536     165.1621    95.280507    16.463523    16.463523    82.317615 
   26300    848.64909   -4051.0292    -4191.331    45.856355   -522.01585    421.52496    238.05995    16.462958    16.462958    82.314791 
   26400    838.67681   -4051.0208   -4189.6739    438.95958    783.12971   -522.62719    1056.3762     16.46212     16.46212    82.310598 
   26500     853.4137   -4051.0045    -4192.094    139.00113    459.78929    313.59003   -356.37594    16.461757    16.461757    82.308785 
   26600    850.09299   -4051.0025    -4191.543   -63.890184   -1237.9047    229.60204    816.63207    16.461735    16.461735    82.308677 
   26700    825.51249   -4050.9955   -4187.4723    753.51736    1233.8125    904.28623    122.45338    16.462232    16.462232    82.311158 
   26800    854.19232   -4050.9689   -4192.1872     -108.776   -1526.9904    318.30116    882.36123    16.463471    16.463471    82.317355 
   26900    871.87221   -4050.9445   -4195.0856   -683.48945   -850.81613   -888.21162   -311.44062    16.464647    16.464647    82.323235 
   27000    858.88333    -4050.921   -4192.9148     -262.123   -899.28727    309.17576    -196.2575     16.46552     16.46552    82.327601 
   27100    865.50347   -4050.9117        -4194   -549.73735   -1264.8039    -155.7606   -228.64752    16.465708    16.465708    82.328542 
   27200     843.1738   -4050.9181   -4190.3147   -143.19038    190.38313   -473.50956   -146.44472    16.465294    16.465294     82.32647 
   27300    832.22234   -4050.9242   -4188.5103    177.83636   -996.10401    101.24608     1428.367    16.464275    16.464275    82.321373 
   27400    857.46225   -4050.9174   -4192.6762    -179.4501   -661.20209   -159.52168    282.37347    16.463204    16.463204    82.316019 
   27500    846.93245   -4050.9128   -4190.9308    204.34562   -124.12279   -901.44044    1638.6001    16.461962    16.461962    82.309809 
   27600    855.94686   -4050.9242   -4192.4326   -69.067863   -137.87301    -1313.345    1244.0145    16.460648    16.460648    82.303239 
   27700    856.60952   -4050.9284   -4192.5463    166.93765    800.99752   -1070.0321    769.84751    16.459996    16.459996    82.299979 
   27800    867.06971   -4050.9379   -4194.2851    17.166141    413.62597   -634.70398    272.57643     16.46028     16.46028    82.301402 
   27900    844.76012   -4050.9603   -4190.6192    375.08788    357.17429    594.32281    173.76655    16.461152    16.461152     82.30576 
   28000    836.09385   -4050.9765   -4189.2026    491.16191    1199.7478   -1069.3659    1343.1038    16.462781    16.462781    82.313906 
   28100    860.51257   -4050.9975   -4193.2607   -396.25221   -1215.1077   -1106.0941    1132.4452    16.464567    16.464567    82.322833 
   28200     863.2645   -4051.0077   -4193.7258   -576.04962   -1140.0081   -962.59949    374.45869    16.466069    16.466069    82.330346 
   28300    849.30684   -4051.0033   -4191.4139     -287.411   -577.81994   -1775.0083    1490.5952    16.466987    16.466987    82.334937 
   28400    872.02915   -4051.0002   -4195.1673   -1144.7776   -1000.2607   -1528.1585   -905.91348    16.466883    16.466883    82.334415 
   28500    833.66127   -4051.0055   -4188.8294    319.57457    121.85058   -854.02092    1690.8941    16.465466    16.465466    82.327328 
   28600    858.28153   -4051.0089   -4192.9032   -257.54902   -778.62133    177.34636   -171.37208    16.463687    16.463687    82.318435 
   28700      845.764   -4051.0237   -4190.8485    217.95486    1030.0498   -371.08762   -5.0975717    16.461622    16.461622     82.30811 
   28800    851.73289   -4051.0293   -4191.8409    133.64355   -134.25141    303.88845    231.29361    16.460069    16.460069    82.300344 
   28900    835.50545   -4051.0214   -4189.1502     772.8642     311.4656    512.23419    1494.8928    16.459379    16.459379    82.296896 
   29000     854.7718   -4051.0366   -4192.3506    308.15066    1602.8369    -890.4581    212.07325    16.459437    16.459437    82.297185 
   29100    854.77983   -4051.0486    -4192.364   -10.991038   -95.365949    276.90755   -214.51471    16.460543    16.460543    82.302717 
   29200    859.02147   -4051.0597   -4193.0763   -120.12466    512.21313   -365.68008   -506.90703    16.462216    16.462216    82.311082 
   29300    851.72513   -4051.0572   -4191.8676   -154.13538    291.09027    245.58572   -999.08213    16.464254    16.464254    82.321268 
   29400    842.25324   -4051.0552   -4190.2996   -121.51126   -571.66164    555.05854   -347.93068    16.465804    16.465804    82.329019 
   29500    858.91549   -4051.0349    -4193.034   -684.65812    -525.0828   -1569.4771    40.585568    16.466864    16.466864    82.334319 
   29600    826.65969   -4051.0152   -4187.6817    159.96776   -277.37672    893.06554   -135.78555    16.466712    16.466712    82.333558 
   29700    857.16283   -4050.9804   -4192.6898   -537.32991   -1205.8513   -188.73035   -217.40811    16.465801    16.465801    82.329006 
   29800     865.7069   -4050.9461    -4194.068   -627.04675    -1272.608   -653.76571    45.233463    16.464111    16.464111    82.320553 
   29900    852.58932   -4050.9331   -4191.8863   -33.667081   -763.50974    101.39054    561.11795    16.461779    16.461779    82.308894 
   30000    857.98555   -4050.9197   -4192.7651    154.73894   -994.31411    145.89742    1312.6335    16.459819    16.459819    82.299095 
   30100    858.87005   -4050.9085      -4192.9    217.23529   -178.97511   -24.832279    855.51326    16.458846    16.458846    82.294229 
   30200    827.12405      -4050.9   -4187.6432    998.61792    2194.4435    885.79516   -84.384865    16.459227    16.459227    82.296134 
   30300    857.91521   -4050.8878   -4192.7216   -10.872516   -150.13302   -550.14158    667.65705     16.46094     16.46094    82.304699 
   30400     824.4901   -4050.8765   -4187.1842    690.23245    1759.1362    366.64284   -55.081668    16.463134    16.463134    82.315672 
   30500    819.80521   -4050.8606   -4186.3939    549.03429    1061.3569    216.03091    369.71507    16.465404    16.465404    82.327019 
   30600    837.05311   -4050.8447   -4189.2295   -386.20484   -1366.4056   -485.80565    693.59668    16.466942    16.466942    82.334711 
   30700     838.5838   -4050.8194   -4189.4572    18.917674   -166.35702   -1257.8024    1480.9124    16.467218    16.467218    82.336089 
   30800    887.09906   -4050.8103   -4197.4688   -1327.8832   -2532.5204   -246.57786   -1204.5513    16.466043    16.466043    82.330214 
   30900     871.3812   -4050.7996   -4194.8596   -733.44258   -228.76416   -929.71889   -1041.8447    16.463887    16.463887    82.319434 
   31000    835.92464   -4050.7891   -4188.9873    576.94971     -1134.45    1464.1197    1401.1794    16.461357    16.461357    82.306784 
   31100    864.86278   -4050.7859   -4193.7683    111.04574   -605.22271    465.53312    472.82682    16.459412    16.459412     82.29706 
   31200    855.31859   -4050.7853   -4192.1897    402.50316    94.291585    38.560764    1074.6571    16.458808    16.458808    82.294038 
   31300    847.44067    -4050.802   -4190.9041    515.85269    1133.5726     329.9892    83.996229    16.459475    16.459475    82.297377 
   31400    867.97102    -4050.818   -4194.3142   -273.22098   -1066.5075   -1153.7966    1400.6411    16.461302    16.461302    82.306512 
   31500    852.35561   -4050.8432   -4191.7578   -325.06036   -961.98645      188.703   -201.89761    16.463018    16.463018    82.315088 
   31600    847.67028   -4050.8437   -4190.9837   -103.73444   -809.13537   -745.78606    1243.7181    16.464693    16.464693    82.323463 
   31700    843.59257   -4050.8474   -4190.3133   -99.083074     545.8506   -94.086127    -749.0137    16.465677    16.465677    82.328385 
   31800    846.21312   -4050.8458   -4190.7449   -175.58516   -1037.3627     1145.929   -635.32174    16.465991    16.465991    82.329957 
   31900    843.40022   -4050.8457   -4190.2798   -40.649285    377.58832   -177.22727    -322.3089    16.465637    16.465637    82.328183 
   32000    851.88254   -4050.8343   -4191.6707   -190.75749    242.54371    -378.1113   -436.70488    16.464977    16.464977    82.324883 
   32100    819.38704   -4050.8355   -4186.2997    845.82734    1067.1382    920.96065     549.3832    16.463884    16.463884     82.31942 
   32200    864.70353   -4050.8377   -4193.7937   -399.91742    46.285468   -896.54305   -349.49469    16.463052    16.463052    82.315258 
   32300    856.20343   -4050.8503   -4192.4011    128.50448   -679.84616     800.0671     265.2925    16.462239    16.462239    82.311196 
   32400    865.23007   -4050.8669     -4193.91   -264.25264    175.19126    387.69745   -1355.6466    16.461809    16.461809    82.309043 
   32500    867.74091    -4050.888   -4194.3461    -307.3657   -633.18529    412.78112   -701.69293    16.461656    16.461656    82.308281 
   32600    836.13344   -4050.9127   -4189.1454    576.48014    1573.0922    447.68608   -291.33785    16.461765    16.461765    82.308823 
   32700     865.7039   -4050.9198   -4194.0412   -319.14474    46.352703   -172.81087   -830.97606    16.462468    16.462468    82.312338 
   32800    822.93122   -4050.9526   -4187.0027    502.69488    1017.3275    305.96755    184.78958    16.462784    16.462784    82.313922 
   32900    819.14964   -4050.9605   -4186.3854    1015.4469     1658.097   -87.776849    1476.0206    16.463464    16.463464    82.317319 
   33000    837.12697   -4050.9616   -4189.3586    174.08571    706.87835   -1235.2977    1050.6765    16.464346    16.464346    82.321731 
   33100    851.46596   -4050.9724   -4191.7399   -228.97511    1957.8366   -1643.4251   -1001.3367    16.464906    16.464906    82.324528 
   33200    816.22801   -4051.0033   -4185.9452     637.1658    1368.8676    291.88367    250.74617    16.464657    16.464657    82.323283 
   33300    854.61736   -4051.0227   -4192.3112    -119.5714   -245.40969   -59.950419   -53.354094    16.464401    16.464401    82.322004 
   33400    847.54181   -4051.0445   -4191.1633    93.510386    118.11805   -173.46436    335.87747    16.463644    16.463644    82.318221 
   33500    855.93887   -4051.0544   -4192.5614   -302.81325    879.58384    26.585022   -1814.6086    16.462728    16.462728    82.313638 
   33600    848.05694   -4051.0636   -4191.2675     105.6099   -144.37468     298.5209    162.68347    16.461675    16.461675    82.308374 
   33700    830.77253   -4051.0819   -4188.4283    778.31388    1114.5441   -7.5003793    1227.8979     16.46076     16.46076      82.3038 
   33800    855.88059   -4051.0889   -4192.5863     81.38269    782.03909   -652.46957    114.57854    16.460763    16.460763    82.303813 
   33900    865.81751   -4051.1036   -4194.2438   -470.57247    -756.3372   -177.67346   -477.70675    16.461113    16.461113    82.305567 
   34000    825.99924   -4051.1093   -4187.6665    884.14104    1290.7739    1159.2289     202.4203    16.461835    16.461835    82.309176 
   34100    863.95242   -4051.1099   -4193.9418   -533.08568    73.247099   -680.01031   -992.49384     16.46324     16.46324    82.316198 
   34200    839.89079    -4051.106   -4189.9598    222.53389    359.94025   -924.28958     1231.951    16.464355    16.464355    82.321774 
   34300    844.17487   -4051.0887   -4190.6509   -253.00543   -130.29863   -214.90528   -413.81239    16.465295    16.465295    82.326476 
   34400    825.47684     -4051.08   -4187.5509    309.23611   -485.74004    256.18542    1157.2629    16.465267    16.465267    82.326337 
   34500    834.88616   -4051.0802   -4189.1067    173.68456    -55.30232    732.72696   -156.37097    16.464456    16.464456    82.322282 
   34600    836.76338   -4051.0913   -4189.4281     574.1363    1273.2439    168.36882    280.79624       16.463       16.463       82.315 
   34700    856.29742   -4051.0956   -4192.6619    51.840264    180.09014    519.16642   -543.73577    16.461866    16.461866    82.309331 
   34800    852.74424   -4051.0957   -4192.0746    118.21602    775.95346   -1462.4933    1041.1879    16.461399    16.461399    82.306994 
   34900     828.3236    -4051.098   -4188.0396    528.06543    191.13021    42.085366    1350.9807    16.461532    16.461532    82.307659 
   35000    838.64686   -4051.0898    -4189.738    353.57957    93.537639   -115.25944    1082.4605    16.462262    16.462262    82.311312 
   35100    847.34483   -4051.0842   -4191.1704     168.0079    63.620091    90.648198    349.75542    16.463326    16.463326    82.316632 
   35200    845.19849   -4051.0797   -4190.8111    87.907356    387.33113   -809.46047    685.85141    16.464547    16.464547    82.322735 
   35300    849.23005   -4051.0742   -4191.4721   -102.45435     404.3536    -800.4147    88.698046    16.465796    16.465796    82.328982 
   35400    844.11986   -4051.0563   -4190.6093   -398.24412   -767.65213    184.21077   -611.29099    16.466826    16.466826     82.33413 
   35500    840.46883   -4051.0524   -4190.0018   -78.139581   -444.89082   -835.29898    1045.7711    16.466439    16.466439    82.332193 
   35600    830.56548   -4051.0487   -4188.3609    277.49124    1462.7484   -1458.7642    828.48953    16.465139    16.465139    82.325696 
   35700    872.05189   -4051.0356   -4195.2065   -691.13875   -1547.7556   -286.64577   -239.01489    16.463506    16.463506    82.317528 
   35800    836.12072   -4051.0209   -4189.2515    640.11758    1232.8444    484.75983    202.74856    16.461774    16.461774     82.30887 
   35900     844.6668   -4051.0185    -4190.662    439.36669    126.85064    287.69484    903.55459    16.460596    16.460596    82.302981 
   36000    862.82067    -4051.019   -4193.6638    29.815639   -1702.4017   -86.346375     1878.195    16.460103    16.460103    82.300516 
   36100    839.70206   -4051.0185   -4189.8412    519.08533    497.16475   -109.14821    1169.2394     16.46035     16.46035     82.30175 
   36200     866.9112   -4051.0203   -4194.3413   -36.937605   -593.87566    427.14667     55.91618    16.461456    16.461456     82.30728 
   36300    856.80955   -4051.0341   -4192.6851   -236.33787   -556.96722    76.240211   -228.28661    16.462969    16.462969    82.314844 
   36400    861.35568   -4051.0249   -4193.4274   -442.39225    766.84053   -1231.4683   -862.54894    16.464871    16.464871    82.324355 
   36500    846.64855   -4051.0387   -4191.0098   -124.80141    -224.5941   -12.667701   -137.14244    16.465738    16.465738    82.328688 
   36600    859.94011   -4051.0354   -4193.2039   -502.29021   -1602.1551   -390.07416    485.35862    16.466231    16.466231    82.331156 
   36700    859.46234   -4051.0387   -4193.1282   -668.45199   -1039.0241     -420.556    -545.7759    16.465708    16.465708    82.328538 
   36800    814.88298   -4051.0596   -4185.7791    594.72664    1202.2299    1578.0587   -996.10869    16.463931    16.463931    82.319654 
   36900    842.28201    -4051.051   -4190.3002    53.470265   -1569.9831    1225.9045    504.48946    16.462331    16.462331    82.311653 
   37000    848.14808   -4051.0414   -4191.2604    310.84454    481.72864    840.00676   -389.20178    16.460688    16.460688    82.303439 
   37100    856.06703   -4051.0444   -4192.5726    230.93995   -436.01295    816.79532    312.03747    16.459486    16.459486    82.297428 
   37200    842.02261   -4051.0477    -4190.254    642.34479    22.537994    -15.21617    1919.7125    16.459162    16.459162    82.295808 
   37300    849.84224   -4051.0486   -4191.5477     433.3399     1468.973    222.41836   -391.37165    16.459905    16.459905    82.299524 
   37400    855.38552   -4051.0443   -4192.4598    23.078491   -477.28276     728.4772   -181.95897    16.461741    16.461741    82.308706 
   37500     848.2108   -4051.0664   -4191.2958   -230.56466   -699.83811    491.27077   -483.12663    16.463361    16.463361    82.316805 
   37600    866.89776   -4051.0677   -4194.3865   -648.10805    6.3067438   -1272.0389   -678.59199    16.465023    16.465023    82.325116 
   37700    845.26501   -4051.0564   -4190.7987    21.839788   -858.76414   -1041.6868    1965.9703    16.466225    16.466225    82.331124 
   37800    845.50279   -4051.0556   -4190.8372     -184.287   -27.180452    629.41344    -1155.094    16.466557    16.466557    82.332787 
   37900    859.06063   -4051.0556   -4193.0787   -546.32327   -499.71425   -461.61767   -677.63787    16.465964    16.465964     82.32982 
   38000    834.18145   -4051.0617   -4188.9717   -34.775875    744.70585   -188.82915   -660.20433    16.464461    16.464461    82.322307 
   38100     857.1417   -4051.0378   -4192.7437   -333.71028   -864.52108   -768.57087    631.96112    16.463021    16.463021    82.315106 
   38200    850.92517   -4051.0312   -4191.7094    176.72587   -454.36574    253.78581    730.75754    16.461216    16.461216    82.306082 
   38300    844.01088   -4051.0497   -4190.5847    614.25255     860.0898    527.09221    455.57565    16.459723    16.459723    82.298617 
   38400    857.91783   -4051.0755   -4192.9097    389.57705    859.19031    47.218088    262.32276    16.459308    16.459308     82.29654 
   38500     886.1452   -4051.1043   -4197.6051    -511.2788   -1456.4554    172.74519   -250.12622    16.460111    16.460111    82.300556 
   38600    843.84566   -4051.1518   -4190.6596    453.41676   -272.17933   -495.32347    2127.7531    16.461385    16.461385    82.306924 
   38700    841.77664   -4051.1843   -4190.3499    70.295774    407.01935    421.78102   -617.91305     16.46337     16.46337    82.316848 
   38800    855.05141   -4051.1932   -4192.5535   -567.43537   -670.55307   -692.51052   -339.24251    16.465376    16.465376    82.326881 
   38900    865.59106   -4051.1902   -4194.2929   -966.75241   -1459.1992   -1105.8826   -335.17547    16.466513    16.466513    82.332563 
   39000    868.22635   -4051.1915   -4194.7299   -915.83538   -1537.1126   -1388.6925    178.29899    16.466337    16.466337    82.331687 
   39100    854.42084   -4051.1914   -4192.4475   -328.00427   -466.72033   -1168.4299    651.13743    16.465146    16.465146    82.325731 
   39200    873.54884   -4051.1752   -4195.5935     -719.155   -1226.2773   -681.63812   -249.54963    16.463752    16.463752    82.318758 
   39300    830.36086   -4051.1602   -4188.4385    550.46026    94.696356   -433.86045    1990.5449     16.46207     16.46207    82.310352 
   39400    881.25019   -4051.1444    -4196.836   -608.53917   -70.644531   -571.60475   -1183.3682    16.460716    16.460716    82.303579 
   39500    835.66492   -4051.1402   -4189.2955    684.91498   -86.045494    838.96188    1301.8286    16.459541    16.459541    82.297706 
   39600    860.96496   -4051.1267   -4193.4646     15.41631   -663.24848    160.27989    549.21752    16.459318    16.459318    82.296592 
   39700    828.35802   -4051.1178   -4188.0651    612.20857    -877.8154    579.98513     2134.456    16.459865    16.459865    82.299323 
   39800    875.98746   -4051.1065    -4195.928   -454.44753    470.67316   -1413.3743   -420.64147    16.461252    16.461252    82.306261 
   39900    850.95335   -4051.0955   -4191.7783    -10.46605   -333.41902    215.13406    86.886809    16.462931    16.462931    82.314655 
   40000    849.37543   -4051.0802   -4191.5021   -401.68609   -161.01164   -752.00579   -292.04085    16.464589    16.464589    82.322945 
   40100    842.44147   -4051.0714   -4190.3469   -209.82624    297.14072   -1038.3185    111.69911    16.465548    16.465548    82.327738 
   40200    847.76485   -4051.0706   -4191.2262    -316.5996   -1554.9781    687.55754   -82.378202    16.465582    16.465582    82.327909 
   40300    852.33462   -4051.0632   -4191.9744   -37.511039   -481.91726    333.61808    35.766066    16.464992    16.464992    82.324962 
   40400     826.2088   -4051.0459   -4187.6378    381.82639     -1136.02    902.40347    1379.0957    16.464379    16.464379    82.321897 
   40500    836.30027    -4051.019   -4189.2793    231.29468    204.18821    338.42197    151.27385    16.463975    16.463975    82.319875 
   40600     827.4008   -4050.9985   -4187.7874    481.18507    229.63266    602.56303    611.35953    16.463411    16.463411    82.317055 
   40700    876.59936   -4050.9622   -4195.8849   -591.53988    -345.1803   -682.05815   -747.38118    16.463228    16.463228    82.316142 
   40800    867.67523   -4050.9436   -4194.3909   -357.75446   -1089.2488    397.13843     -381.153     16.46285     16.46285    82.314248 
   40900    843.55555   -4050.9427   -4190.4025    34.392124   -430.39211    804.31002   -270.74154    16.462318    16.462318    82.311589 
   41000    849.30629   -4050.9227   -4191.3332    157.98049   -244.19588    31.373808    686.76355    16.462206    16.462206     82.31103 
   41100    874.56997   -4050.9106   -4195.4978   -477.65479   -619.23585   -937.81516    124.08663    16.462182    16.462182    82.310912 
   41200    840.61287   -4050.9139   -4189.8871    399.66841     561.6286    370.21677    267.15987    16.462177    16.462177    82.310885 
   41300    840.41992    -4050.912   -4189.8534     149.1211   -281.33774    337.52883     391.1722    16.462543    16.462543    82.312713 
   41400    847.07594   -4050.9019   -4190.9436   -27.049861    293.95397   -64.107829   -310.99572    16.463093    16.463093    82.315463 
   41500    853.27026   -4050.8979   -4191.9637   -34.980203    14.241522   -176.12721    56.945084    16.463492    16.463492    82.317458 
   41600    843.10203   -4050.9094   -4190.2942    61.689431    305.27097    -708.4955    588.29282    16.463546    16.463546    82.317732 
   41700    850.44957   -4050.9164   -4191.5159    107.51024    255.12726   -149.35706    216.76052    16.463451    16.463451    82.317256 
   41800    872.16015     -4050.92   -4195.1087   -682.05217   -608.63476   -1221.0183   -216.50351    16.463524    16.463524    82.317619 
   41900    863.19848   -4050.9213   -4193.6285   -319.53416    424.75715   -1375.3176   -8.0420544    16.463608    16.463608    82.318038 
   42000    861.36397   -4050.9133   -4193.3172   -430.31991   -352.20513   -624.27905   -314.47556    16.463861    16.463861    82.319306 
   42100    831.83591   -4050.8947    -4188.417    473.46183    126.33489    853.43424    440.61635    16.464173    16.464173    82.320867 
   42200    849.07828   -4050.8783   -4191.2511   -39.305539   -875.59902   -183.30669    940.98909    16.464275    16.464275    82.321376 
   42300     824.2836   -4050.8793   -4187.1529     636.9795    594.06333    173.07957    1143.7956    16.463827    16.463827    82.319134 
   42400    855.91677   -4050.8764   -4192.3797   -61.684767    1236.7869   -1800.2123    378.37113    16.463485    16.463485    82.317423 
   42500    869.33499   -4050.8774   -4194.5991   -505.61021   -1288.6298   -769.57355    541.37274    16.463057    16.463057    82.315283 
   42600    840.24682   -4050.9011   -4189.8139    439.42656    1066.1259   -527.14344    779.29724    16.462135    16.462135    82.310676 
   42700    859.54908   -4050.9164   -4193.0203   -53.586531    548.92077   -894.08509    184.40473    16.461872    16.461872    82.309358 
   42800    825.55245   -4050.9308   -4187.4142    628.69729     1505.288   -1312.3598    1693.1637    16.461823    16.461823    82.309115 
   42900    846.08576   -4050.9421   -4190.8202    113.99482    475.02183   -234.08307    101.04571    16.462037    16.462037    82.310184 
   43000    865.49183   -4050.9453   -4194.0316   -510.81295    -927.4462     -1027.66    422.66734    16.462391    16.462391    82.311956 
   43100    846.21366   -4050.9357   -4190.8349    331.12388    403.75127   -1712.1994    2301.8198    16.462935    16.462935    82.314674 
   43200    850.98505   -4050.9472   -4191.6352   -48.114293   -355.31946   -744.99994    955.97652    16.463372    16.463372    82.316859 
   43300    877.22026   -4050.9588   -4195.9842   -705.86469    7.3809629   -1171.2796   -953.69546     16.46387     16.46387    82.319352 
   43400    844.78633     -4050.98   -4190.6432    364.81196    19.368297    100.24852    974.81905    16.464006    16.464006     82.32003 
   43500    809.14052   -4050.9915   -4184.7616     905.2951    246.36672    1009.1741    1460.3445    16.464413    16.464413    82.322063 
   43600    835.71947   -4050.9848   -4189.1491    94.751627    687.56309    126.81286   -530.12107    16.465131    16.465131    82.325653 
   43700    844.21694   -4050.9787   -4190.5478   -62.351755   -436.13773   -71.855501    320.93797     16.46499     16.46499    82.324952 
   43800    881.60771   -4050.9805   -4196.7312    -1013.403   -810.94193   -1492.7775   -736.48956    16.464101    16.464101    82.320506 
   43900    857.11051   -4050.9958   -4192.6965    38.907523    1075.3163   -451.90322   -506.69052      16.4626      16.4626    82.312999 
   44000    813.66288   -4051.0084   -4185.5262    1210.1167    883.38135    1250.9212    1496.0476     16.46148     16.46148    82.307398 
   44100     869.9703   -4051.0001   -4194.8268   -368.40065   -548.37994   -481.98878   -74.833229    16.461465    16.461465    82.307326 
   44200    836.29344   -4051.0105   -4189.2697    479.76252    1621.8102    445.37955   -627.90222    16.461791    16.461791    82.308955 
   44300    830.65368   -4051.0293    -4188.356    553.71789    245.14426    393.94027    1022.0691    16.462366    16.462366     82.31183 
   44400    842.84072   -4051.0381   -4190.3796     193.8082    989.78233   -33.505446   -374.85227    16.463194    16.463194    82.315968 
   44500    879.19707   -4051.0534   -4196.4056   -937.87704   -1199.2692   -1333.0918   -281.27008    16.463771    16.463771    82.318856 
   44600    859.07298   -4051.0618    -4193.087   -195.21954     400.3245   -1331.3936    345.41049     16.46377     16.46377    82.318849 
   44700    883.72935   -4051.0725   -4197.1739    -873.1742   -1141.7227   -499.05474   -978.74514    16.463349    16.463349    82.316746 
   44800    840.08217   -4051.0937   -4189.9792    439.09262    1358.1254   -445.21303    404.36547    16.462251    16.462251    82.311254 
   44900    851.77505    -4051.086   -4191.9046    196.69409    22.059542   -796.78007    1364.8028    16.461757    16.461757    82.308784 
   45000    839.40377    -4051.084   -4189.8573    470.01154    749.09656     398.3493    262.58877    16.461779    16.461779    82.308893 
   45100     836.8347   -4051.0962   -4189.4448    317.67411    207.04447   -59.393888    805.37174    16.462229    16.462229    82.311145 
   45200    845.80757   -4051.0891   -4190.9211    253.91617    1381.4585   -195.64784   -424.06215    16.463186    16.463186    82.315931 
   45300    854.47498   -4051.0933   -4192.3582   -71.712318   -310.97707     -151.955    247.79512    16.464045    16.464045    82.320223 
   45400    841.14824   -4051.1017   -4190.1635    157.50094     382.6561   -184.84234    274.68905    16.464744    16.464744    82.323722 
   45500    841.67692   -4051.1136   -4190.2627    133.55214    1612.9953   -1130.4913   -81.847591    16.464928    16.464928    82.324641 
   45600    856.77722    -4051.122   -4192.7676   -369.78831   -434.22646   -357.60621   -317.53226     16.46475     16.46475     82.32375 
   45700     847.0657   -4051.1231   -4191.1631   -12.883998   -582.49116   -109.61097    653.45013    16.464303    16.464303    82.321515 
   45800    851.23585   -4051.1146   -4191.8441   -24.574581    7.2365199    35.810309   -116.77057    16.463896    16.463896    82.319482 
   45900    836.28884   -4051.1084   -4189.3668    286.54804    -817.8309    977.11152    700.36351    16.463381    16.463381    82.316903 
   46000     858.0876   -4051.1045   -4192.9667    17.013925    160.90009    379.57969     -489.438    16.462886    16.462886     82.31443 
   46100    830.86401   -4051.1156   -4188.4772    493.12346    1571.5337    23.058271   -115.22156    16.462278    16.462278    82.311391 
   46200     860.5589   -4051.1193   -4193.3901   -230.68646    638.93185   -509.23163   -821.75962    16.461993    16.461993    82.309965 
   46300    843.72599    -4051.131    -4190.619    180.59129    832.22201   -332.94488    42.496742    16.461632    16.461632    82.308161 
   46400    840.59603   -4051.1449   -4190.1154    293.14642    535.45954   -202.38748    546.36718    16.461445    16.461445    82.307227 
   46500    857.48686   -4051.1476   -4192.9105    30.521998    475.03415   -684.48033    301.01217    16.461877    16.461877    82.309386 
   46600    846.54688   -4051.1666   -4191.1209   -36.338855    541.69284   -1553.8779    903.16853    16.462461    16.462461    82.312303 
   46700     837.4174    -4051.181   -4189.6259    159.14177   -201.24224    789.74844    -111.0809     16.46313     16.46313    82.315648 
   46800     830.6754   -4051.1798   -4188.5101    328.32131   -645.16734    593.57911    1036.5521    16.463767    16.463767    82.318836 
   46900    840.28193   -4051.1859   -4190.1044    88.981118   -146.97975    1327.9738   -914.05069     16.46387     16.46387    82.319352 
   47000     835.4775   -4051.1958     -4189.32     507.5303    586.83152    788.87317    146.88621    16.463326    16.463326    82.316629 
   47100    849.49372   -4051.2023   -4191.6437    68.489686   -618.17151    377.44756    446.19301    16.462849    16.462849    82.314245 
   47200    845.07045   -4051.2001   -4190.9103    145.61873   -498.40542   -626.15755    1561.4192    16.462721    16.462721    82.313605 
   47300     849.6333   -4051.1969   -4191.6614    45.204728   -861.48429    1384.1384   -387.03995    16.462979    16.462979    82.314897 
   47400    842.25127    -4051.215   -4190.4591    252.70317    431.12346    1182.1057   -855.11964     16.46293     16.46293     82.31465 
   47500    868.74213    -4051.229   -4194.8526   -758.52232   -1179.5338   -367.60293   -728.43017    16.463099    16.463099    82.315497 
   47600    829.69157   -4051.2319   -4188.3996    536.98792    785.61047    157.56886    667.78444    16.463028    16.463028    82.315141 
   47700     855.6029   -4051.2409   -4192.6923   -244.34754   -801.56437    -476.3606    544.88235    16.462783    16.462783    82.313915 
   47800    856.82683   -4051.2414   -4192.8952   -3.3938787    52.028372     669.9073   -732.11731     16.46257     16.46257     82.31285 
   47900    860.60795   -4051.2484   -4193.5273   -227.81498    -177.7281    217.42319   -723.14004    16.462403    16.462403    82.312013 
   48000    836.01756   -4051.2368   -4189.4503    195.44578    396.63842    274.80135    -85.10244    16.462506    16.462506    82.312531 
   48100    842.78529   -4051.2133   -4190.5457   -6.0248165    1216.1883   -124.02187   -1110.2408    16.462609    16.462609    82.313044 
   48200    862.55363   -4051.2026   -4193.8032    -266.4099   -620.52631    16.164437   -194.86782     16.46241     16.46241    82.312052 
   48300    859.23493   -4051.1949   -4193.2468   -266.33253   -452.54453    697.22659   -1043.6796    16.462422    16.462422    82.312108 
   48400    850.86818   -4051.1958   -4191.8645   -26.736522    -947.4644    1261.4553   -394.20046    16.462369    16.462369    82.311844 
   48500    855.15095   -4051.1853   -4192.5621    17.598528   -456.91112    840.70562   -330.99892    16.462664    16.462664    82.313322 
   48600    822.48674   -4051.1914    -4187.168    712.39517    44.247588    2221.1615   -128.22354    16.462849    16.462849    82.314247 
   48700    852.44841   -4051.1869   -4192.1169   -141.83731   -196.38394    444.30226   -673.43026    16.463365    16.463365    82.316827 
   48800    847.56862   -4051.1942   -4191.3174    -83.88976     -1072.64    563.26814    257.70262    16.463581    16.463581    82.317905 
   48900    859.68264    -4051.202   -4193.3279   -194.02322   -596.30608   -438.81696    453.05338    16.463593    16.463593    82.317967 
   49000    836.57937   -4051.2224   -4189.5288    250.26579    934.76592   -182.28117   -1.6873773    16.463374    16.463374    82.316868 
   49100     834.6113   -4051.2419   -4189.2229    523.77376    741.35203    340.81654     489.1527    16.463223    16.463223    82.316115 
   49200    855.36795   -4051.2423   -4192.6549   -195.30252    631.74608   -1071.0786   -146.57501    16.463617    16.463617    82.318085 
   49300     870.0342   -4051.2519   -4195.0892   -237.01503   -1049.4331   -495.99467    834.38267    16.463561    16.463561    82.317804 
   49400    848.99027   -4051.2531   -4191.6113    1.9745783    589.91908   -1163.6636    579.66824    16.463794    16.463794    82.318972 
   49500    828.69895   -4051.2576   -4188.2612    441.89249   -401.53475    1056.2933    670.91891    16.463721    16.463721    82.318607 
   49600    870.20865   -4051.2305   -4195.0967   -787.93835    1013.0263   -985.61564   -2391.2258    16.464096    16.464096    82.320478 
   49700    854.73693   -4051.2248    -4192.533   -153.31661     313.9229   -608.53375     -165.339    16.463594    16.463594    82.317971 
   49800    836.27647   -4051.2265   -4189.4829    429.75916   -198.39764      1072.82    414.85516    16.462673    16.462673    82.313365 
   49900    867.48483   -4051.2205   -4194.6363   -327.96684   -1316.7599   -164.38931    497.24869    16.461973    16.461973    82.309865 
   50000    844.77589   -4051.2112   -4190.8727    296.82645    389.83443    46.294755    454.35017    16.461397    16.461397    82.306986 
Loop time of 246.924 on 1 procs for 50000 steps with 1280 atoms

Pair  time (%) = 218.462 (88.4734)
Neigh time (%) = 19.626 (7.94817)
Comm  time (%) = 3.32083 (1.34488)
Outpt time (%) = 0.111567 (0.0451829)
Other time (%) = 5.40352 (2.18833)

Nlocal:    1280 ave 1280 max 1280 min
Histogram: 1 0 0 0 0 0 0 0 0 0
Nghost:    4000 ave 4000 max 4000 min
Histogram: 1 0 0 0 0 0 0 0 0 0
Neighs:    47816 ave 47816 max 47816 min
Histogram: 1 0 0 0 0 0 0 0 0 0

Total # of neighbors = 47816
Ave neighs/atom = 37.3563
Neighbor list builds = 5000
Dangerous builds = 0
unfix		1

# Melt half the system
region  liquid block INF INF INF INF INF ${nzhalf}
region  liquid block INF INF INF INF INF 10
group	liquid_group region liquid
643 atoms in group liquid_group

# Heat up one side to Tmelt to make sure it is melted
fix 2 liquid_group npt temp ${Tmelt} ${Tmelt} 1 z 0 0 10 drag 1.0
fix 2 liquid_group npt temp 2000 ${Tmelt} 1 z 0 0 10 drag 1.0
fix 2 liquid_group npt temp 2000 2000 1 z 0 0 10 drag 1.0
run		${eqsteps}
run		50000
Memory usage per processor = 3.13854 Mbytes
Step Temp TotEng PotEng Press Pxx Pyy Pzz Lx Ly Lz 
   50000    844.77589   -4051.2112   -4190.8727    296.82645    389.83443    46.294755    454.35017    16.461397    16.461397    82.306986 
   50100    855.54685   -4050.8254   -4192.2676    180.04728    322.89833   -83.067621    300.31112    16.461397    16.461397     82.30718 
   50200    871.07044    -4049.828   -4193.8367    120.08861   -1073.5105     157.6468    1276.1295    16.461397    16.461397    82.307773 
   50300    856.46587   -4048.4973   -4190.0914      550.688    348.74725    857.81804    445.49872    16.461397    16.461397    82.309138 
   50400    852.81699   -4047.1955   -4188.1864    1020.4813   -94.181386    844.44715    2311.1781    16.461397    16.461397     82.31102 
   50500    871.00116   -4045.9721   -4189.9692    526.78963   -1087.8475    1111.7739    1556.4425    16.461397    16.461397    82.313841 
   50600    866.56518   -4044.7686   -4188.0323    1016.9837    183.73136     945.0161    1922.2036    16.461397    16.461397    82.317456 
   50700    890.67533   -4043.4818   -4190.7316    431.73064   -371.08998    480.81512    1185.4668    16.461397    16.461397    82.321887 
   50800    884.54836   -4042.1364   -4188.3732     1157.814   -22.491442    1387.6833    2108.2501    16.461397    16.461397    82.327276 
   50900    869.68637   -4040.7053   -4184.4851    1594.5172    502.45404    1431.8345    2849.2632    16.461397    16.461397    82.333696 
   51000    885.05046   -4039.3057   -4185.6255    1369.5888    951.10484    1790.2367    1367.4249    16.461397    16.461397     82.34122 
   51100    893.46507    -4037.866    -4185.577    1448.6866 -0.092424259    2151.2772    2194.8752    16.461397    16.461397     82.34977 
   51200    892.21314   -4036.4186   -4183.9226    1716.6361    790.20446    1630.8866    2728.8171    16.461397    16.461397    82.359319 
   51300    891.68189   -4034.9572   -4182.3734    1910.7525    871.64876    1956.8208    2903.7879    16.461397    16.461397     82.37008 
   51400    892.49291   -4033.4867    -4181.037    2002.6979     1610.194     1920.763    2477.1368    16.461397    16.461397    82.382192 
   51500    912.68096   -4031.9778   -4182.8656     1714.442    1591.5011    1795.3676    1756.4574    16.461397    16.461397    82.395385 
   51600    907.11505   -4030.4977   -4180.4654     1927.839    868.85204    1698.4028    3216.2623    16.461397    16.461397    82.409546 
   51700    923.09934   -4028.9652   -4181.5755    1758.1959    1183.6833    1799.7621    2291.1422    16.461397    16.461397    82.424894 
   51800    954.76488    -4027.467   -4185.3123    1268.1581    66.336563    1836.1333    1902.0044    16.461397    16.461397    82.441382 
   51900    906.08029   -4025.9098   -4175.7064    2788.8049    1606.0893    3644.0121    3116.3134    16.461397    16.461397    82.459037 
   52000    922.21913   -4024.3792   -4176.8439    2349.6629    1300.7512    2748.1065    3000.1311    16.461397    16.461397    82.477989 
   52100    928.77857   -4022.8216   -4176.3707    2383.9793     1087.157    2388.9984    3675.7824    16.461397    16.461397    82.498312 
   52200    939.18727   -4021.2679   -4176.5378    2214.3882    1336.1112    3065.2754    2241.7781    16.461397    16.461397    82.520036 
   52300    935.52015   -4019.7092   -4174.3729    2411.4195    428.90734    4086.1975    2719.1536    16.461397    16.461397    82.542919 
   52400    952.41961   -4018.1416   -4175.5991    2250.6821     1374.462    2264.9661    3112.6183    16.461397    16.461397    82.567097 
   52500    975.14884   -4016.5512   -4177.7664     1904.764    1809.4664    1388.6896     2516.136    16.461397    16.461397    82.592536 
   52600    961.43758     -4014.95   -4173.8984    2169.6505    1699.0365    2547.0632    2262.8517    16.461397    16.461397    82.619037 
   52700    953.61207   -4013.3319   -4170.9866     2356.508     1977.996    2441.0129     2650.515    16.461397    16.461397    82.646573 
   52800    970.95868    -4011.724   -4172.2465    2191.9356    1097.5486    2253.0841    3225.1742    16.461397    16.461397    82.675119 
   52900    953.97802   -4010.0817   -4167.7969    2604.0624     1925.404    2020.0152    3866.7679    16.461397    16.461397    82.704741 
   53000    991.33544   -4008.4669   -4172.3582    1619.7713    560.48018    2343.3311    1955.5027    16.461397    16.461397    82.735557 
   53100    993.84418   -4006.8306   -4171.1367    1774.9365    1536.2812    1205.5619    2582.9665    16.461397    16.461397    82.767369 
   53200    972.63889   -4005.1702   -4165.9704    2265.2225    1420.9548    2819.5138    2555.1989    16.461397    16.461397    82.800126 
   53300    973.03453   -4003.5115   -4164.3772    2312.8305    911.95712     2451.655    3574.8794    16.461397    16.461397    82.833707 
   53400    990.01289   -4001.8462   -4165.5188    1984.0324    682.64475    3690.4848    1578.9677    16.461397    16.461397    82.868294 
   53500     1006.099    -4000.174   -4166.5061    1448.2977     -54.9813    2563.9998    1835.8745    16.461397    16.461397    82.903559 
   53600    968.66904   -3998.4673   -4158.6113    2839.6396    2127.7782    2802.3843    3588.7563    16.461397    16.461397    82.939549 
   53700    1001.3289   -3996.7597   -4162.3031    1601.9525    728.38304    2065.4483    2012.0261    16.461397    16.461397    82.976133 
   53800    1002.5361   -3995.0718   -4160.8148    1786.0811     438.1598    3094.4061    1825.6773    16.461397    16.461397    83.013096 
   53900     1007.248   -3993.3584   -4159.8804    1825.1147    439.98393    1965.9474    3069.4128    16.461397    16.461397    83.050423 
   54000    1012.2707   -3991.6341   -4158.9864    1457.2191    1082.2452    2192.8261     1096.586    16.461397    16.461397    83.088306 
   54100    1036.9914   -3989.9269   -4161.3661    1060.9061    -71.59865    2101.4366    1152.8804    16.461397    16.461397    83.126551 
   54200     1001.741   -3988.1504    -4153.762    1944.0463    2898.3787    1102.6897    1831.0705    16.461397    16.461397     83.16483 
   54300    1034.4121   -3986.4319   -4157.4447    1232.5429    552.44759    1913.2608    1231.9204    16.461397    16.461397    83.203107 
   54400    1023.2427   -3984.6624   -4153.8287    1466.3754   -288.57676    1061.7641    3625.9388    16.461397    16.461397    83.241365 
   54500    1014.4883   -3982.9344   -4150.6534    1887.5731    1256.4613    2397.3031     2008.955    16.461397    16.461397    83.280103 
   54600    1052.0991   -3981.1641    -4155.101    784.81966    271.31457    530.43866    1552.7057    16.461397    16.461397    83.318952 
   54700    1056.4245   -3979.3785   -4154.0306    1136.1111    1875.7154     696.8357    835.78234    16.461397    16.461397    83.357882 
[...]
  336300    829.99243   -4054.1197   -4191.3372    1769.6862    1561.8679    1313.4898    2433.7008    16.432486    16.432486    82.400905 
  336400    872.87997   -4054.1403    -4198.448   -224.98889   -503.55624   -405.61511    234.20467    16.432806    16.432806     82.50515 
  336500    844.17566   -4054.1706   -4193.7329   -1344.3636   -305.89485   -2067.0182   -1660.1778    16.433097    16.433097    82.711095 
  336600    828.50752    -4054.135   -4191.1069   -1379.7007    -1761.035    -1202.006    -1176.061    16.433133    16.433133    82.796754 
  336700     856.3449   -4054.1583   -4195.7324    -1247.906   -87.869056   -1047.8716   -2607.9773    16.432799    16.432799    82.690406 
  336800    833.84779   -4054.1769   -4192.0317    1193.4998    1469.5473      795.586     1315.366    16.432345    16.432345    82.443715 
  336900    837.00055   -4054.1552   -4192.5312     2071.833    3112.4229    1862.7422    1240.3337    16.432142    16.432142    82.333368 
  337000    826.00728   -4054.1543   -4190.7129    2294.2651    1964.3336    3620.3796    1298.0821    16.432444    16.432444     82.32226 
  337100    842.04893     -4054.17   -4193.3807    1011.3561    1227.2333     962.0696    844.76529    16.433206    16.433206    82.414685 
  337200    849.80847   -4054.1766   -4194.6701   -221.48787    864.35894     296.4709   -1825.2935    16.434111    16.434111     82.56799 
  337300    827.15412   -4054.1686   -4190.9168     -598.732    75.639418   -1075.1739   -796.66154    16.434985    16.434985    82.649315 
  337400    843.95497   -4054.1795   -4193.7053   -366.66803   -631.61098   -78.832154   -389.56095    16.435646    16.435646    82.590667 
  337500    837.40233   -4054.1819   -4192.6244    908.63313    1221.2792    249.37436    1255.2459    16.436219    16.436219    82.454579 
  337600    844.52274    -4054.174   -4193.7936    960.15159    544.87407   -326.64502    2662.2257    16.436833    16.436833    82.406443 
  337700      826.419   -4054.1997   -4190.8264    183.41555   -461.83077    556.25274    455.82468    16.437437    16.437437    82.550483 
  337800    843.55131   -4054.1863   -4193.6453   -1587.2539   -2005.4553   -1189.2609   -1567.0455    16.437897    16.437897    82.707214 
  337900     834.1598   -4054.1856    -4192.092   -1222.6777   -844.15481   -2040.8705   -783.00775    16.437935    16.437935    82.693181 
  338000    862.18377   -4054.1932   -4196.7326   -1241.5971   -1697.6264   -683.89983   -1343.2649    16.437643    16.437643    82.605485 
  338100    811.39297   -4054.1932   -4188.3357    1151.4111    295.18229     1505.626     1653.425    16.437224    16.437224    82.482459 
  338200    831.80772   -4054.1949   -4191.7125    1477.7528    2197.8187    1431.6763    803.76335    16.436977    16.436977    82.393472 
  338300    830.76255   -4054.1901   -4191.5348     1651.321    1401.2127     1835.548    1717.2021    16.437086    16.437086    82.368579 
  338400    818.99315   -4054.2158   -4189.6148    1075.1788    690.79782    1401.5512    1133.1873    16.437451    16.437451     82.49572 
  338500    848.72802   -4054.2015   -4194.5164   -1191.1261   -268.24117   -898.75726   -2406.3799    16.437871    16.437871    82.655678 
  338600    828.23757   -4054.2092   -4191.1365    13.407546    259.96761   -616.31953    396.57455    16.438098    16.438098    82.591597 
  338700    844.30798   -4054.2156   -4193.7997    281.87296     1088.283      223.131   -465.79507    16.438226    16.438226    82.477222 
  338800    845.24203   -4054.2132   -4193.9518    1217.9257    1171.7612    1210.0349    1271.9809    16.438513    16.438513    82.352628 
  338900    858.14707   -4054.2239   -4196.0959     544.6864    1055.0891    666.88649   -87.916356    16.439015    16.439015    82.397099 
  339000    843.90062   -4054.2173   -4193.7341   -203.38003   -257.52621    1037.9106   -1390.5244    16.439611    16.439611    82.516285 
  339100    849.78152   -4054.2135   -4194.7026   -604.70796    24.891061   -334.13159   -1504.8833    16.440167    16.440167    82.546719 
  339200     855.4984   -4054.2184   -4195.6525   -278.43322   -211.18887   -705.87827     81.76748    16.440642    16.440642      82.4711 
  339300    843.79699    -4054.218   -4193.7177    648.71457    1782.5711   -156.71617    320.28882    16.441031    16.441031    82.401679 
  339400    820.75955     -4054.22    -4189.911    1117.5034    912.06775     1576.917    863.52547    16.441488    16.441488    82.398538 
  339500    843.30681   -4054.2186   -4193.6372    168.49813   -268.04153   -451.60828    1225.1442    16.442028    16.442028    82.448678 
  339600    813.67256   -4054.2295   -4188.7489    56.677174   -63.506971    37.344881    196.19361    16.442459    16.442459    82.546017 
  339700    831.71858    -4054.221   -4191.7238   -1122.5345    127.77932   -1737.8178   -1757.5649    16.442672    16.442672     82.63914 
  339800     862.4399     -4054.25   -4196.8318   -1343.9487   -424.80373   -2335.4855    -1271.557    16.442646    16.442646    82.532955 
  339900    827.21235   -4054.2612    -4191.019    1508.6923    1593.0514    2005.2555    927.76995     16.44251     16.44251    82.312815 
  340000    859.09821   -4054.2401   -4196.2694    1413.2673    2287.5778    711.96806    1240.2561     16.44266     16.44266    82.223838 
  340100    859.43572   -4054.2549     -4196.34    674.49169    1720.0214    428.83652   -125.38288    16.443158    16.443158    82.322391 
  340200    844.83424   -4054.2564   -4193.9275   -283.39912    515.67163    425.07962   -1790.9486    16.443865    16.443865    82.483674 
  340300    844.23525   -4054.2507   -4193.8228   -920.09854    349.13714   -2134.3817   -975.05105    16.444523    16.444523    82.560333 
  340400    834.42208   -4054.2579   -4192.2077   -484.36096   -573.68824   -670.04924   -209.34538     16.44494     16.44494    82.503346 
  340500    828.60203   -4054.2574    -4191.245    938.97096    645.37715    135.85327    2035.6825    16.445198    16.445198    82.379252 
  340600    820.11828   -4054.2532   -4189.8382    890.52861    520.20967    206.96616      1944.41    16.445432    16.445432    82.375523 
  340700    845.69045   -4054.2591   -4194.0718   -218.20056    326.54507   -1825.6148    844.46805    16.445674    16.445674     82.45368 
  340800     853.8088   -4054.2573   -4195.4122   -879.69732   -367.97466    70.421076   -2341.5384    16.445851    16.445851     82.50947 
  340900    866.49658   -4054.2565   -4197.5089   -664.41023   -398.71034   -879.70274    -714.8176     16.44595     16.44595    82.471006 
  341000    835.52361   -4054.2701    -4192.402    301.98576    1547.5997   -10.155582   -631.48682    16.445997    16.445997    82.401238 
  341100    853.99551   -4054.2627   -4195.4484    877.92272    1261.8454    790.15238    581.77033    16.446233    16.446233    82.292728 
  341200    838.89869   -4054.2677   -4192.9575    1053.8927    1607.5311    1172.8134     381.3337    16.446632    16.446632    82.311672 
  341300    840.81808   -4054.2637   -4193.2709    231.34183   -47.266767   -28.285562    769.57781    16.447208    16.447208    82.374392 
  341400     835.8033   -4054.2664   -4192.4445   -22.061451    14.091852   -627.25923    546.98303    16.447765    16.447765    82.440259 
  341500    815.48455   -4054.2642   -4189.0832   -123.76804    512.34012   -566.05674    -317.5875    16.448159    16.448159    82.512168 
  341600    876.70589   -4054.2662   -4199.2065    -1964.245   -2272.1649   -811.08406   -2809.4859    16.448332    16.448332    82.539243 
  341700    843.98033   -4054.2847   -4193.8147   -233.94706    225.37147     -1050.15    122.93732    16.448294    16.448294    82.398669 
  341800    842.83456   -4054.2686   -4193.6092    882.82334     1350.374    10.537311    1287.5587    16.448238    16.448238    82.307088 
  341900    815.54979   -4054.2777   -4189.1074    999.48393    1682.2411    791.28523    524.92544    16.448234    16.448234    82.357054 
  342000    848.75527   -4054.2725   -4194.5919   -320.19773    380.99517   -555.97145   -785.61692    16.448403    16.448403     82.42116 
  342100    836.09949   -4054.2735   -4192.5006    330.01746    566.92274    985.94851   -562.81888    16.448581    16.448581    82.388572 
  342200    842.47519   -4054.2737   -4193.5549    617.29991    1107.7366    301.69918    442.46395    16.448821    16.448821    82.324562 
  342300    843.19077   -4054.2733   -4193.6727     701.5139    674.10976    112.28191      1318.15    16.449176    16.449176    82.291115 
  342400    830.00663   -4054.2831   -4191.5029    410.59436     374.2751    1188.6966   -331.18858    16.449613    16.449613    82.357666 
  342500    845.88475   -4054.2769   -4194.1217   -243.20977   -534.34399   -359.54206    164.25676    16.450108    16.450108    82.415524 
  342600    838.40261   -4054.2807   -4192.8885   -410.61294    -1130.639   -1.0404732   -100.15936    16.450455    16.450455     82.47054 
  342700    845.31321   -4054.2778   -4194.0281   -1160.0184   -1680.7216   -1524.8021   -274.53131    16.450591    16.450591    82.507692 
  342800    851.98266   -4054.2791   -4195.1321   -1047.8874   -289.79865   -1854.3342   -999.52945    16.450429    16.450429    82.497549 
  342900    831.13392   -4054.2886   -4191.6948     381.7135   -429.13852    311.39732    1262.8817    16.450105    16.450105    82.386234 
  343000    846.47822   -4054.2835   -4194.2264    542.80887    1248.6943   -191.67581    571.40809    16.449784    16.449784    82.303786 
  343100     832.6831   -4054.2876   -4191.9498    912.67751    382.38079    1122.8264    1232.8254    16.449636    16.449636    82.326884 
  343200    837.00981   -4054.2936   -4192.6712   -297.14475   -34.929786   -430.38276   -426.12171    16.449587    16.449587      82.4454 
  343300    821.85494   -4054.2824   -4190.1545    -212.1646   -48.791893   -713.65954    125.95764    16.449511    16.449511    82.517972 
  343400    837.89645   -4054.2855   -4192.8096   -824.58804   -1878.3938   -939.02715    343.65686    16.449226    16.449226    82.516452 
  343500    841.67649   -4054.2891   -4193.4382   -533.52517   -853.67254   -345.65832   -401.24464    16.448709    16.448709    82.483511 
  343600     846.4815   -4054.2898   -4194.2332   -255.37423   -629.91601   -251.75938     115.5527    16.448108    16.448108    82.431555 
  343700    859.02976   -4054.2907   -4196.3087   -576.12247   -785.72971    8.7044104   -951.34211     16.44749     16.44749    82.414805 
  343800    827.74075   -4054.2882   -4191.1334    705.47697    227.46387    1244.5869    644.38015    16.446947    16.446947    82.369293 
  343900    849.54847   -4054.2903   -4194.7408     645.4036    1147.9581    389.76135    398.49137    16.446608    16.446608    82.328323 
  344000    845.18232    -4054.295   -4194.0237    588.02097    1031.2787    692.72313    40.061129    16.446551    16.446551    82.360407 
  344100    815.86172   -4054.2942   -4189.1755    680.22525     497.2187    731.49847    811.95858    16.446656    16.446656    82.422376 
  344200    820.77762   -4054.2894   -4189.9834    353.04597    631.77405    3.0667008    424.29717    16.446807    16.446807    82.468453 
  344300    839.19764    -4054.289   -4193.0283   -366.62059   -729.71541    319.91479   -690.06114    16.446895    16.446895     82.47341 
  344400    847.85466   -4054.2934   -4194.4639   -525.28745   -1146.8731   -948.22682    519.23757    16.446857    16.446857    82.456178 
  344500    833.45996   -4054.2907   -4192.0814   -106.20644   -273.95343   -178.11511    133.44922    16.446676    16.446676    82.480918 
  344600    847.69062   -4054.2929   -4194.4363   -572.72079    252.43608   -1412.2091   -558.38933    16.446403    16.446403    82.472063 
  344700    831.47654   -4054.2916   -4191.7544    4.4696863   -505.30098    688.37944    -169.6694    16.446077    16.446077    82.483383 
  344800    859.87661   -4054.2951   -4196.4531   -856.18536   -1849.5649    89.982583   -808.97381    16.445668    16.445668    82.477733 
  344900     838.6752    -4054.293   -4192.9459    109.13113    -109.3627   -889.49282    1326.2489    16.445267    16.445267    82.456214 
  345000    843.82494   -4054.2945   -4193.7988   -371.45454    394.21648   -568.59919   -939.98091    16.444806    16.444806    82.499755 
  345100    848.90772   -4054.3102   -4194.6548   -124.78131   -198.76361    987.88649   -1163.4668    16.444381    16.444381    82.438138 
  345200    828.73726   -4054.3003   -4191.3102    1519.8198     1681.629    2144.1979    733.63261    16.444123    16.444123    82.315199 
  345300    861.39136   -4054.3011   -4196.7095    1120.8713    357.27963    2383.7929    621.54153    16.444215    16.444215    82.237473 
  345400    831.04059   -4054.3053   -4191.6961    1808.8336    2696.2654    666.46157    2063.7739    16.444691    16.444691    82.252669 
  345500    810.90419   -4054.3216   -4188.3833    855.15487     1386.073    549.89935     629.4922    16.445477    16.445477    82.398754 
  345600    836.92311   -4054.3086   -4192.6719   -621.11842   -1179.0519   -471.74083   -212.56253    16.446252    16.446252    82.512509 
  345700    842.04632    -4054.309   -4193.5192   -735.47294   -331.89751   -1075.8267   -798.69457    16.446813    16.446813    82.520728 
  345800    853.44723   -4054.3284   -4195.4234   -247.72098   -21.305161   -468.85047   -253.00732    16.447221    16.447221    82.407137 
  345900    831.76971   -4054.3171   -4191.8284    1420.8796    870.60687    2232.8933    1159.1386    16.447636    16.447636    82.289102 
  346000     839.3135   -4054.3186    -4193.077    1271.2096    1107.4093    1234.4142    1471.8051    16.448239    16.448239    82.279044 
  346100    842.67678   -4054.3324   -4193.6468    316.78313    499.65945   -716.15371    1166.8437    16.448998    16.448998    82.376594 
  346200    835.75776   -4054.3347   -4192.5053   -748.59294    -937.9574   -721.41701   -586.40441    16.449651    16.449651    82.532766 
  346300    842.50382   -4054.3241     -4193.61   -1735.9399   -2077.3979   -1502.5524   -1627.8693     16.44995     16.44995    82.603666 
  346400    833.40036   -4054.3396   -4192.1205   -896.20547   -504.82343   -1248.0079   -935.78507    16.449838    16.449838    82.519907 
  346500     841.2472   -4054.3463   -4193.4244    123.35667   -102.19433    265.07385    207.19048    16.449486    16.449486       82.371 
  346600    852.50903    -4054.334    -4195.274    797.47434    377.96789    1058.1636    956.29148     16.44918     16.44918    82.272192 
  346700    852.44204   -4054.3378   -4195.2667    611.03882    1313.4014   -410.95843    930.67349    16.449158    16.449158    82.305922 
  346800     862.4482   -4054.3349   -4196.9181   -404.99221   -1131.8192    676.41774   -759.57513    16.449364    16.449364    82.373487 
  346900    842.04803    -4054.335   -4193.5456   -21.959494   -619.35182     1786.582   -1233.1087    16.449673    16.449673    82.380133 
  347000     862.0896   -4054.3367   -4196.8606   -87.016401   -1037.7701    682.86528    93.855641    16.450052    16.450052    82.345491 
  347100    836.01019    -4054.335   -4192.5473    688.43299    991.14057    685.37672    388.78169    16.450431    16.450431     82.31698 
  347200    857.32109   -4054.3406   -4196.0761    70.029245   -121.82321   -72.742091    404.65303    16.450885    16.450885    82.338731 
  347300    830.06135    -4054.338   -4191.5668    65.133303   -574.64106    531.96233    238.07864    16.451322    16.451322    82.396494 
  347400    830.46563   -4054.3359   -4191.6315   -296.15566     30.86595   -499.06158   -420.27135    16.451703    16.451703    82.432634 
  347500    826.14037   -4054.3372   -4190.9178    -53.11831    183.74152    -1011.063    667.96658    16.451959    16.451959    82.407326 
  347600    836.64804   -4054.3377   -4192.6555   -267.08814    26.171659   -1316.6262    489.19009    16.452107    16.452107    82.397636 
  347700    840.41981   -4054.3449   -4193.2863    70.749885    543.51147   -483.52335    152.26154    16.452163    16.452163    82.358324 
  347800    843.18329   -4054.3384   -4193.7366    187.80971   -149.98534    286.18097     427.2335    16.452237    16.452237    82.316594 
  347900     840.8222   -4054.3444   -4193.3522   -196.61658    -131.1849    -67.58418   -391.08066    16.452331    16.452331    82.367566 
  348000    828.88075   -4054.3398   -4191.3734   -37.738405    496.71258    -646.0721    36.144303    16.452396    16.452396    82.419297 
  348100    837.57963   -4054.3417   -4192.8135     213.5006    670.41638   -177.38129    147.46671      16.4524      16.4524    82.386647 
  348200    848.90654   -4054.3429   -4194.6873    274.28127    230.98531   -965.80863    1557.6671    16.452422    16.452422    82.321205 
  348300    852.40722   -4054.3492   -4195.2723   -329.73457    369.83723   -891.66539   -467.37555    16.452467    16.452467    82.393164 
  348400    832.02136   -4054.3423   -4191.8952   -496.92596    110.09161   -1436.2355   -164.63402    16.452426    16.452426    82.456988 
  348500    827.79885   -4054.3453   -4191.2001   -99.207034    410.14312   -865.49244    157.72822    16.452273    16.452273     82.42354 
  348600    851.81361   -4054.3469   -4195.1719   -61.912635    186.11646   -1180.0378    808.18345    16.452043    16.452043    82.352171 
  348700    841.89294   -4054.3475   -4193.5324    629.16686    1720.1063    320.07581   -152.68157    16.451806    16.451806    82.305944 
  348800    866.62502   -4054.3466   -4197.6203    233.36675    1871.4549   -1500.8497    329.49505    16.451802    16.451802    82.282625 
  348900    822.24377   -4054.3539   -4190.2903    896.77266    451.60597    1159.7012    1079.0108    16.451961    16.451961    82.324522 
  349000    841.10473   -4054.3528   -4193.4074    -577.4227   -548.80568   -854.76042     -328.702     16.45218     16.45218      82.4371 
  349100    828.73619   -4054.3498   -4191.3595   -590.49149    470.96708   -308.21428   -1934.2273    16.452274    16.452274    82.478061 
  349200    854.25015   -4054.3819   -4195.6097   -158.53423    1136.1296   -624.72994   -987.00232    16.452311    16.452311    82.328818 
  349300    841.72452   -4054.3615   -4193.5186    1851.6368    2133.6131    1535.9375    1885.3598    16.452435    16.452435    82.160246 
  349400    841.96591   -4054.4028   -4193.5997    881.37438   -449.82027    614.08182    2479.8616    16.452821    16.452821    82.261124 
  349500      852.141   -4054.4096   -4195.2887    -1902.809   -1270.7305   -2063.4167   -2374.2796    16.453179    16.453179    82.533948 
  349600    835.21068   -4054.3845   -4192.4647   -1745.0092   -1436.3944   -2512.6515   -1285.9817    16.453222    16.453222    82.589783 
  349700     802.4983   -4054.4095   -4187.0816    278.96514    719.48466   -236.01704    353.42781     16.45283     16.45283     82.44095 
  349800    859.23369   -4054.4005   -4196.4522     347.5049    8.1335585   -289.50669    1323.8878    16.452382    16.452382    82.296606 
  349900    851.12146   -4054.3959   -4195.1064    643.28467    1641.1096   -237.99845    526.74291    16.452043    16.452043    82.271176 
  350000     850.2672   -4054.4051   -4194.9744   -129.10973    1155.9871    -1287.452   -255.86432    16.451921    16.451921    82.355545 
Loop time of 965.412 on 1 procs for 200000 steps with 1280 atoms

Pair  time (%) = 859.025 (88.9801)
Neigh time (%) = 73.2489 (7.58732)
Comm  time (%) = 12.1867 (1.26234)
Outpt time (%) = 0.457347 (0.0473732)
Other time (%) = 20.4944 (2.12286)

Nlocal:    1280 ave 1280 max 1280 min
Histogram: 1 0 0 0 0 0 0 0 0 0
Nghost:    3594 ave 3594 max 3594 min
Histogram: 1 0 0 0 0 0 0 0 0 0
Neighs:    47868 ave 47868 max 47868 min
Histogram: 1 0 0 0 0 0 0 0 0 0

Total # of neighbors = 47868
Ave neighs/atom = 37.3969
Neighbor list builds = 20000
Dangerous builds = 0
unfix		4
